<event>
 6    0  0.1539497E-004  0.4123558E+03  0.7546771E-02  0.1039583E+00
         21   -1    0    0  502  501  0.00000000000E+00  0.00000000000E+00  0.46724042541E+03  0.46724042541E+03  0.00000000000E+00 0.  1.
         21   -1    0    0  501  502 -0.00000000000E+00 -0.00000000000E+00 -0.90979537434E+02  0.90979537434E+02  0.00000000000E+00 0.  1.
      99925    2    1    2    0    0  0.52985362325E+02 -0.30930983575E+02  0.21545405179E+03  0.34545125972E+03  0.26296758363E+03 0.  0.
         25    1    1    2    0    0 -0.52985362325E+02  0.30930983575E+02  0.16080683618E+03  0.21276870312E+03  0.12509000000E+03 0.  0.
         25    1    3    3    0    0  0.57427251268E+02 -0.43076163545E+02  0.11833652267E+03  0.18655960375E+03  0.12509000000E+03 0.  0.
         25    1    3    3    0    0 -0.44418889424E+01  0.12145179970E+02  0.97117529119E+02  0.15889165597E+03  0.12509000000E+03 0.  0.
<mgrwt>
<rscale>  2 0.41235576E+03</rscale>
<asrwt>0</asrwt>
<pdfrwt beam="1">  1       21 0.68711826E-01 0.41235576E+03</pdfrwt>
<pdfrwt beam="2">  1       21 0.13379344E-01 0.41235576E+03</pdfrwt>
<totfact> 0.87233400E+04</totfact>
</mgrwt>
</event>
<event>
 6    0  0.1539497E-004  0.4554225E+03  0.7546771E-02  0.1026117E+00
         21   -1    0    0  502  501  0.00000000000E+00  0.00000000000E+00  0.63304407068E+02  0.63304407068E+02  0.00000000000E+00 0. -1.
         21   -1    0    0  501  502 -0.00000000000E+00 -0.00000000000E+00 -0.81909631534E+03  0.81909631534E+03  0.00000000000E+00 0. -1.
      99925    2    1    2    0    0  0.45556345921E+02  0.91458221218E+02 -0.57127464165E+03  0.63717813645E+03  0.26306135120E+03 0.  0.
         25    1    3    3    0    0  0.19447843493E+02  0.27005730399E+01 -0.25643785198E+03  0.28599544007E+03  0.12509000000E+03 0.  0.
         25    1    3    3    0    0  0.26108502428E+02  0.88757648178E+02 -0.31483678967E+03  0.35118269639E+03  0.12509000000E+03 0.  0.
         25    1    1    2    0    0 -0.45556345921E+02 -0.91458221218E+02 -0.18451726662E+03  0.24522258596E+03  0.12509000000E+03 0.  0.
<mgrwt>
<rscale>  2 0.45542247E+03</rscale>
<asrwt>0</asrwt>
<pdfrwt beam="1">  1       21 0.93094713E-02 0.45542247E+03</pdfrwt>
<pdfrwt beam="2">  1       21 0.12045534E+00 0.45542247E+03</pdfrwt>
<totfact> 0.43858101E+04</totfact>
</mgrwt>
</event>
<event>
 6    0  0.1539497E-004  0.4062856E+03  0.7546771E-02  0.1041625E+00
         21   -1    0    0  502  501  0.00000000000E+00  0.00000000000E+00  0.19163699806E+03  0.19163699806E+03  0.00000000000E+00 0.  1.
         21   -1    0    0  501  502 -0.00000000000E+00 -0.00000000000E+00 -0.21533940651E+03  0.21533940651E+03  0.00000000000E+00 0.  1.
      99925    2    1    2    0    0  0.45263590277E+02 -0.34062709061E+02 -0.16012766149E+02  0.26944204721E+03  0.26293259093E+03 0.  0.
         25    1    1    2    0    0 -0.45263590277E+02  0.34062709061E+02 -0.76896423001E+01  0.13753435735E+03  0.12509000000E+03 0.  0.
         25    1    3    3    0    0 -0.18284788335E+02 -0.19082145542E+02 -0.88016488272E+01  0.12815396555E+03  0.12509000000E+03 0.  0.
         25    1    3    3    0    0  0.63548378612E+02 -0.14980563518E+02 -0.72111173222E+01  0.14128808166E+03  0.12509000000E+03 0.  0.
<mgrwt>
<rscale>  2 0.40628560E+03</rscale>
<asrwt>0</asrwt>
<pdfrwt beam="1">  1       21 0.28181912E-01 0.40628560E+03</pdfrwt>
<pdfrwt beam="2">  1       21 0.31667560E-01 0.40628560E+03</pdfrwt>
<totfact> 0.10871838E+05</totfact>
</mgrwt>
</event>
<event>
 6    0  0.1539497E-004  0.4570431E+03  0.7546771E-02  0.1025642E+00
         21   -1    0    0  502  501  0.00000000000E+00  0.00000000000E+00  0.58978698691E+02  0.58978698691E+02  0.00000000000E+00 0.  1.
         21   -1    0    0  501  502 -0.00000000000E+00 -0.00000000000E+00 -0.88543999817E+03  0.88543999817E+03  0.00000000000E+00 0.  1.
      99925    2    1    2    0    0  0.95094964968E+02  0.22180301152E+02 -0.39381622628E+03  0.48358870046E+03  0.26311935126E+03 0.  0.
         25    1    3    3    0    0  0.79291722170E+01  0.65541180189E+01 -0.20536346255E+03  0.24068129982E+03  0.12509000000E+03 0.  0.
         25    1    1    2    0    0 -0.95094964968E+02 -0.22180301152E+02 -0.43264507319E+03  0.46082999640E+03  0.12509000000E+03 0.  0.
         25    1    3    3    0    0  0.87165792751E+02  0.15626183133E+02 -0.18845276373E+03  0.24290740064E+03  0.12509000000E+03 0.  0.
<mgrwt>
<rscale>  2 0.45704310E+03</rscale>
<asrwt>0</asrwt>
<pdfrwt beam="1">  1       21 0.86733376E-02 0.45704310E+03</pdfrwt>
<pdfrwt beam="2">  1       21 0.13021177E+00 0.45704310E+03</pdfrwt>
<totfact> 0.40713225E+04</totfact>
</mgrwt>
</event>
<event>
 6    0  0.1539497E-004  0.4225898E+03  0.7546771E-02  0.1036227E+00
         21   -1    0    0  502  501  0.00000000000E+00  0.00000000000E+00  0.17222053916E+03  0.17222053916E+03  0.00000000000E+00 0. -1.
         21   -1    0    0  501  502 -0.00000000000E+00 -0.00000000000E+00 -0.25923465519E+03  0.25923465519E+03  0.00000000000E+00 0. -1.
      99925    2    1    2    0    0 -0.79093102953E+02 -0.26195335731E+01 -0.54254940643E+02  0.27985291018E+03  0.26289060816E+03 0.  0.
         25    1    3    3    0    0 -0.83589852899E+01 -0.19907029229E+02 -0.45502006898E+02  0.13484844522E+03  0.12509000000E+03 0.  0.
         25    1    1    2    0    0  0.79093102953E+02  0.26195335731E+01 -0.32759175387E+02  0.15160228416E+03  0.12509000000E+03 0.  0.
         25    1    3    3    0    0 -0.70734117663E+02  0.17287495656E+02 -0.87529337450E+01  0.14500446495E+03  0.12509000000E+03 0.  0.
<mgrwt>
<rscale>  2 0.42258979E+03</rscale>
<asrwt>0</asrwt>
<pdfrwt beam="1">  1       21 0.25326550E-01 0.42258979E+03</pdfrwt>
<pdfrwt beam="2">  1       21 0.38122743E-01 0.42258979E+03</pdfrwt>
<totfact> 0.91841677E+04</totfact>
</mgrwt>
</event>
<event>
 6    0  0.1539497E-004  0.4797162E+03  0.7546771E-02  0.1019213E+00
         21   -1    0    0  502  501  0.00000000000E+00  0.00000000000E+00  0.67961997994E+03  0.67961997994E+03  0.00000000000E+00 0. -1.
         21   -1    0    0  501  502 -0.00000000000E+00 -0.00000000000E+00 -0.84653071009E+02  0.84653071009E+02  0.00000000000E+00 0. -1.
      99925    2    1    2    0    0  0.88189664652E+02 -0.10222505245E+03  0.37529375033E+03  0.47768766574E+03  0.26289299852E+03 0.  0.
         25    1    3    3    0    0  0.26893013359E+02 -0.75491253422E+02  0.23614191827E+03  0.27898508414E+03  0.12509000000E+03 0.  0.
         25    1    3    3    0    0  0.61296651292E+02 -0.26733799031E+02  0.13915183206E+03  0.19870258160E+03  0.12509000000E+03 0.  0.
         25    1    1    2    0    0 -0.88189664652E+02  0.10222505245E+03  0.21967315860E+03  0.28658538520E+03  0.12509000000E+03 0.  0.
<mgrwt>
<rscale>  2 0.47971624E+03</rscale>
<asrwt>0</asrwt>
<pdfrwt beam="1">  1       21 0.99944112E-01 0.47971624E+03</pdfrwt>
<pdfrwt beam="2">  1       21 0.12448981E-01 0.47971624E+03</pdfrwt>
<totfact> 0.40989431E+04</totfact>
</mgrwt>
</event>
<event>
 6    0  0.1539497E-004  0.4052688E+03  0.7546771E-02  0.1041970E+00
         21   -1    0    0  502  501  0.00000000000E+00  0.00000000000E+00  0.20297346164E+03  0.20297346164E+03  0.00000000000E+00 0. -1.
         21   -1    0    0  501  502 -0.00000000000E+00 -0.00000000000E+00 -0.20229585774E+03  0.20229585774E+03  0.00000000000E+00 0. -1.
      99925    2    1    2    0    0  0.17809527561E+02  0.32124538195E+02  0.41378997443E+02  0.26869231998E+03  0.26293378665E+03 0.  0.
         25    1    1    2    0    0 -0.17809527561E+02 -0.32124538195E+02 -0.40701393545E+02  0.13657699939E+03  0.12509000000E+03 0.  0.
         25    1    3    3    0    0  0.40702699718E+02  0.33615108593E+02  0.39875526908E+02  0.14150707062E+03  0.12509000000E+03 0.  0.
         25    1    3    3    0    0 -0.22893172157E+02 -0.14905703976E+01  0.15034705357E+01  0.12718524936E+03  0.12509000000E+03 0.  0.
<mgrwt>
<rscale>  2 0.40526875E+03</rscale>
<asrwt>0</asrwt>
<pdfrwt beam="1">  1       21 0.29849039E-01 0.40526875E+03</pdfrwt>
<pdfrwt beam="2">  1       21 0.29749391E-01 0.40526875E+03</pdfrwt>
<totfact> 0.10991042E+05</totfact>
</mgrwt>
</event>
<event>
 6    0  0.1539497E-004  0.3947564E+03  0.7546771E-02  0.1045611E+00
         21   -1    0    0  502  501  0.00000000000E+00  0.00000000000E+00  0.47172963436E+03  0.47172963436E+03  0.00000000000E+00 0. -1.
         21   -1    0    0  501  502 -0.00000000000E+00 -0.00000000000E+00 -0.82585775948E+02  0.82585775948E+02  0.00000000000E+00 0. -1.
      99925    2    1    2    0    0  0.34435186326E+01  0.22070017600E+02  0.22563677445E+03  0.34723808634E+03  0.26298933652E+03 0.  0.
         25    1    3    3    0    0 -0.30936575117E+02  0.15893115225E+02  0.14374412958E+03  0.19369962746E+03  0.12509000000E+03 0.  0.
         25    1    1    2    0    0 -0.34435186326E+01 -0.22070017600E+02  0.16350708396E+03  0.20707732397E+03  0.12509000000E+03 0.  0.
         25    1    3    3    0    0  0.34380093750E+02  0.61769023742E+01  0.81892644877E+02  0.15353845888E+03  0.12509000000E+03 0.  0.
<mgrwt>
<rscale>  2 0.39475642E+03</rscale>
<asrwt>0</asrwt>
<pdfrwt beam="1">  1       21 0.69372004E-01 0.39475642E+03</pdfrwt>
<pdfrwt beam="2">  1       21 0.12144967E-01 0.39475642E+03</pdfrwt>
<totfact> 0.10228362E+05</totfact>
</mgrwt>
</event>
<event>
 6    0  0.1539497E-004  0.4276690E+03  0.7546771E-02  0.1034599E+00
         21   -1    0    0  502  501  0.00000000000E+00  0.00000000000E+00  0.29687128375E+03  0.29687128375E+03  0.00000000000E+00 0.  1.
         21   -1    0    0  501  502 -0.00000000000E+00 -0.00000000000E+00 -0.15402365424E+03  0.15402365424E+03  0.00000000000E+00 0.  1.
      99925    2    1    2    0    0  0.55904224590E+02 -0.63979991033E+02  0.89486397018E+02  0.29054017252E+03  0.26303432288E+03 0.  0.
         25    1    3    3    0    0 -0.91596063992E+00 -0.43300112550E+02  0.15924057598E+02  0.13332975077E+03  0.12509000000E+03 0.  0.
         25    1    3    3    0    0  0.56820185230E+02 -0.20679878483E+02  0.73562339420E+02  0.15721042174E+03  0.12509000000E+03 0.  0.
         25    1    1    2    0    0 -0.55904224590E+02  0.63979991033E+02  0.53361232489E+02  0.16035476548E+03  0.12509000000E+03 0.  0.
<mgrwt>
<rscale>  2 0.42766903E+03</rscale>
<asrwt>0</asrwt>
<pdfrwt beam="1">  1       21 0.43657542E-01 0.42766903E+03</pdfrwt>
<pdfrwt beam="2">  1       21 0.22650537E-01 0.42766903E+03</pdfrwt>
<totfact> 0.86090688E+04</totfact>
</mgrwt>
</event>
<event>
 6    0  0.1539497E-004  0.4504673E+03  0.7546771E-02  0.1027583E+00
         21   -1    0    0  502  501  0.00000000000E+00  0.00000000000E+00  0.43570128302E+03  0.43570128302E+03  0.00000000000E+00 0.  1.
         21   -1    0    0  501  502 -0.00000000000E+00 -0.00000000000E+00 -0.11643341709E+03  0.11643341709E+03  0.00000000000E+00 0.  1.
      99925    2    1    2    0    0 -0.43871780665E+02 -0.99277796724E+02  0.19010437331E+03  0.34210724956E+03  0.26290090032E+03 0.  0.
         25    1    3    3    0    0 -0.22520033201E+02 -0.78304874773E+02  0.13811514591E+03  0.20337676106E+03  0.12509000000E+03 0.  0.
         25    1    1    2    0    0  0.43871780665E+02  0.99277796724E+02  0.12916349261E+03  0.21002745055E+03  0.12509000000E+03 0.  0.
         25    1    3    3    0    0 -0.21351747463E+02 -0.20972921950E+02  0.51989227404E+02  0.13873048851E+03  0.12509000000E+03 0.  0.
<mgrwt>
<rscale>  2 0.45046727E+03</rscale>
<asrwt>0</asrwt>
<pdfrwt beam="1">  1       21 0.64073718E-01 0.45046727E+03</pdfrwt>
<pdfrwt beam="2">  1       21 0.17122561E-01 0.45046727E+03</pdfrwt>
<totfact> 0.63989672E+04</totfact>
</mgrwt>
</event>
<event>
 6    0  0.1539497E-004  0.4078929E+03  0.7546771E-02  0.1041080E+00
         21   -1    0    0  502  501  0.00000000000E+00  0.00000000000E+00  0.36737701243E+03  0.36737701243E+03  0.00000000000E+00 0.  1.
         21   -1    0    0  501  502 -0.00000000000E+00 -0.00000000000E+00 -0.11321925623E+03  0.11321925623E+03  0.00000000000E+00 0.  1.
      99925    2    1    2    0    0  0.33079180866E+02 -0.19853729471E+02  0.11534583256E+03  0.28979621356E+03  0.26303760477E+03 0.  0.
         25    1    1    2    0    0 -0.33079180866E+02  0.19853729471E+02  0.13881192364E+03  0.19080005510E+03  0.12509000000E+03 0.  0.
         25    1    3    3    0    0  0.24036568545E+02 -0.42869971804E+02  0.83996343504E+02  0.15848812237E+03  0.12509000000E+03 0.  0.
         25    1    3    3    0    0  0.90426123207E+01  0.23016242333E+02  0.31349489056E+02  0.13130809119E+03  0.12509000000E+03 0.  0.
<mgrwt>
<rscale>  2 0.40789289E+03</rscale>
<asrwt>0</asrwt>
<pdfrwt beam="1">  1       21 0.54026031E-01 0.40789289E+03</pdfrwt>
<pdfrwt beam="2">  1       21 0.16649891E-01 0.40789289E+03</pdfrwt>
<totfact> 0.98697078E+04</totfact>
</mgrwt>
</event>
<event>
 6    0  0.1539497E-004  0.4078929E+03  0.7546771E-02  0.1041080E+00
         21   -1    0    0  502  501  0.00000000000E+00  0.00000000000E+00  0.36428221898E+03  0.36428221898E+03  0.00000000000E+00 0. -1.
         21   -1    0    0  501  502 -0.00000000000E+00 -0.00000000000E+00 -0.11418113396E+03  0.11418113396E+03  0.00000000000E+00 0. -1.
      99925    2    1    2    0    0 -0.21106511477E+02 -0.54275535459E+02  0.15422166572E+03  0.31044046843E+03  0.26305445003E+03 0.  0.
         25    1    1    2    0    0  0.21106511477E+02  0.54275535459E+02  0.95879419298E+02  0.16802288452E+03  0.12509000000E+03 0.  0.
         25    1    3    3    0    0 -0.20369108793E+02 -0.57003307046E+02  0.11168956642E+03  0.17828725404E+03  0.12509000000E+03 0.  0.
         25    1    3    3    0    0 -0.73740268317E+00  0.27277715862E+01  0.42532099299E+02  0.13215321438E+03  0.12509000000E+03 0.  0.
<mgrwt>
<rscale>  2 0.40789291E+03</rscale>
<asrwt>0</asrwt>
<pdfrwt beam="1">  1       21 0.53570914E-01 0.40789291E+03</pdfrwt>
<pdfrwt beam="2">  1       21 0.16791343E-01 0.40789291E+03</pdfrwt>
<totfact> 0.98929817E+04</totfact>
</mgrwt>
</event>
<event>
 6    0  0.1539497E-004  0.4270984E+03  0.7546771E-02  0.1034781E+00
         21   -1    0    0  502  501  0.00000000000E+00  0.00000000000E+00  0.10267273242E+04  0.10267273242E+04  0.00000000000E+00 0. -1.
         21   -1    0    0  501  502 -0.00000000000E+00 -0.00000000000E+00 -0.44416129424E+02  0.44416129424E+02  0.00000000000E+00 0. -1.
      99925    2    1    2    0    0  0.84006054569E+02 -0.44579796000E+00  0.62714551386E+03  0.68533600821E+03  0.26328071074E+03 0.  0.
         25    1    3    3    0    0  0.66334120760E+02 -0.34062902498E+02  0.33097071856E+03  0.36159317132E+03  0.12509000000E+03 0.  0.
         25    1    1    2    0    0 -0.84006054569E+02  0.44579796000E+00  0.35516568092E+03  0.38580744542E+03  0.12509000000E+03 0.  0.
         25    1    3    3    0    0  0.17671933809E+02  0.33617104538E+02  0.29617479530E+03  0.32374283689E+03  0.12509000000E+03 0.  0.
<mgrwt>
<rscale>  2 0.42709837E+03</rscale>
<asrwt>0</asrwt>
<pdfrwt beam="1">  1       21 0.15098930E+00 0.42709837E+03</pdfrwt>
<pdfrwt beam="2">  1       21 0.65317844E-02 0.42709837E+03</pdfrwt>
<totfact> 0.45674308E+04</totfact>
</mgrwt>
</event>
<event>
 6    0  0.1539497E-004  0.4059956E+03  0.7546771E-02  0.1041723E+00
         21   -1    0    0  502  501  0.00000000000E+00  0.00000000000E+00  0.18565906253E+03  0.18565906253E+03  0.00000000000E+00 0.  1.
         21   -1    0    0  501  502 -0.00000000000E+00 -0.00000000000E+00 -0.22195580362E+03  0.22195580362E+03  0.00000000000E+00 0.  1.
      99925    2    1    2    0    0  0.19794202952E+02 -0.35092317909E+02  0.14839474120E+02  0.26659819390E+03  0.26311804528E+03 0.  0.
         25    1    3    3    0    0  0.25604417317E+02 -0.19361349931E+02 -0.30139862944E+02  0.13261360223E+03  0.12509000000E+03 0.  0.
         25    1    3    3    0    0 -0.58102143649E+01 -0.15730967978E+02  0.44979337063E+02  0.13398459168E+03  0.12509000000E+03 0.  0.
         25    1    1    2    0    0 -0.19794202952E+02  0.35092317909E+02 -0.51136215204E+02  0.14101667225E+03  0.12509000000E+03 0.  0.
<mgrwt>
<rscale>  2 0.40599560E+03</rscale>
<asrwt>0</asrwt>
<pdfrwt beam="1">  1       21 0.27302803E-01 0.40599560E+03</pdfrwt>
<pdfrwt beam="2">  1       21 0.32640559E-01 0.40599560E+03</pdfrwt>
<totfact> 0.10891949E+05</totfact>
</mgrwt>
</event>
<event>
 6    0  0.1539497E-004  0.4218341E+03  0.7546771E-02  0.1036471E+00
         21   -1    0    0  502  501  0.00000000000E+00  0.00000000000E+00  0.76574208390E+02  0.76574208390E+02  0.00000000000E+00 0.  1.
         21   -1    0    0  501  502 -0.00000000000E+00 -0.00000000000E+00 -0.58095285071E+03  0.58095285071E+03  0.00000000000E+00 0.  1.
      99925    2    1    2    0    0 -0.49410211123E+02  0.16477954379E+02 -0.23758586785E+03  0.35829673886E+03  0.26309051015E+03 0.  0.
         25    1    1    2    0    0  0.49410211123E+02 -0.16477954379E+02 -0.26679277446E+03  0.29923032024E+03  0.12509000000E+03 0.  0.
         25    1    3    3    0    0 -0.44414057014E+02  0.29178226186E+02 -0.16218840275E+03  0.21160473395E+03  0.12509000000E+03 0.  0.
         25    1    3    3    0    0 -0.49961541091E+01 -0.12700271806E+02 -0.75397465100E+02  0.14669200491E+03  0.12509000000E+03 0.  0.
<mgrwt>
<rscale>  2 0.42183411E+03</rscale>
<asrwt>0</asrwt>
<pdfrwt beam="1">  1       21 0.11260913E-01 0.42183411E+03</pdfrwt>
<pdfrwt beam="2">  1       21 0.85434244E-01 0.42183411E+03</pdfrwt>
<totfact> 0.72421469E+04</totfact>
</mgrwt>
</event>
<event>
 6    0  0.1539497E-004  0.4178340E+03  0.7546771E-02  0.1037774E+00
         21   -1    0    0  502  501  0.00000000000E+00  0.00000000000E+00  0.17442859460E+03  0.17442859460E+03  0.00000000000E+00 0. -1.
         21   -1    0    0  501  502 -0.00000000000E+00 -0.00000000000E+00 -0.25022458456E+03  0.25022458456E+03  0.00000000000E+00 0. -1.
      99925    2    1    2    0    0 -0.28411852877E+02 -0.29726671147E+02  0.11848891596E+02  0.26647593134E+03  0.26301733288E+03 0.  0.
         25    1    3    3    0    0  0.13497966847E+02 -0.14967029600E+02  0.35625192536E+02  0.13161637257E+03  0.12509000000E+03 0.  0.
         25    1    1    2    0    0  0.28411852877E+02  0.29726671147E+02 -0.87644881554E+02  0.15817724781E+03  0.12509000000E+03 0.  0.
         25    1    3    3    0    0 -0.41909819724E+02 -0.14759641547E+02 -0.23776300939E+02  0.13485955878E+03  0.12509000000E+03 0.  0.
<mgrwt>
<rscale>  2 0.41783405E+03</rscale>
<asrwt>0</asrwt>
<pdfrwt beam="1">  1       21 0.25651264E-01 0.41783405E+03</pdfrwt>
<pdfrwt beam="2">  1       21 0.36797733E-01 0.41783405E+03</pdfrwt>
<totfact> 0.96380988E+04</totfact>
</mgrwt>
</event>
<event>
 6    0  0.1539497E-004  0.4307940E+03  0.7546771E-02  0.1033609E+00
         21   -1    0    0  502  501  0.00000000000E+00  0.00000000000E+00  0.14975072030E+03  0.14975072030E+03  0.00000000000E+00 0. -1.
         21   -1    0    0  501  502 -0.00000000000E+00 -0.00000000000E+00 -0.30982067767E+03  0.30982067767E+03  0.00000000000E+00 0. -1.
      99925    2    1    2    0    0  0.63127603668E+02 -0.59222852084E+02 -0.12302327489E+03  0.30300701717E+03  0.26303248038E+03 0.  0.
         25    1    1    2    0    0 -0.63127603668E+02  0.59222852084E+02 -0.37046682478E+02  0.15656438080E+03  0.12509000000E+03 0.  0.
         25    1    3    3    0    0 -0.38609665124E+01 -0.17596117620E+02 -0.77632037537E+02  0.14831982932E+03  0.12509000000E+03 0.  0.
         25    1    3    3    0    0  0.66988570180E+02 -0.41626734464E+02 -0.45391237357E+02  0.15468718785E+03  0.12509000000E+03 0.  0.
<mgrwt>
<rscale>  2 0.43079401E+03</rscale>
<asrwt>0</asrwt>
<pdfrwt beam="1">  1       21 0.22022165E-01 0.43079401E+03</pdfrwt>
<pdfrwt beam="2">  1       21 0.45561864E-01 0.43079401E+03</pdfrwt>
<totfact> 0.83064108E+04</totfact>
</mgrwt>
</event>
<event>
 6    0  0.1539497E-004  0.4307738E+03  0.7546771E-02  0.1033616E+00
         21   -1    0    0  502  501  0.00000000000E+00  0.00000000000E+00  0.25736213019E+03  0.25736213019E+03  0.00000000000E+00 0. -1.
         21   -1    0    0  501  502 -0.00000000000E+00 -0.00000000000E+00 -0.18025775302E+03  0.18025775302E+03  0.00000000000E+00 0. -1.
      99925    2    1    2    0    0 -0.71989959219E+02  0.51492078232E+02  0.45313900556E+02  0.28112026388E+03  0.26294726626E+03 0.  0.
         25    1    3    3    0    0 -0.67588274644E+02  0.18922379208E+02 -0.18674704924E+01  0.14344764498E+03  0.12509000000E+03 0.  0.
         25    1    3    3    0    0 -0.44016845748E+01  0.32569699024E+02  0.47181371048E+02  0.13767261890E+03  0.12509000000E+03 0.  0.
         25    1    1    2    0    0  0.71989959219E+02 -0.51492078232E+02  0.31790476614E+02  0.15649961934E+03  0.12509000000E+03 0.  0.
<mgrwt>
<rscale>  2 0.43077381E+03</rscale>
<asrwt>0</asrwt>
<pdfrwt beam="1">  1       21 0.37847372E-01 0.43077381E+03</pdfrwt>
<pdfrwt beam="2">  1       21 0.26508493E-01 0.43077381E+03</pdfrwt>
<totfact> 0.85136260E+04</totfact>
</mgrwt>
</event>
<event>
 6    0  0.1539497E-004  0.4185742E+03  0.7546771E-02  0.1037531E+00
         21   -1    0    0  502  501  0.00000000000E+00  0.00000000000E+00  0.13838608228E+03  0.13838608228E+03  0.00000000000E+00 0.  1.
         21   -1    0    0  501  502 -0.00000000000E+00 -0.00000000000E+00 -0.31651365376E+03  0.31651365376E+03  0.00000000000E+00 0.  1.
      99925    2    1    2    0    0  0.68509119693E+02 -0.19340484212E+02 -0.94015732797E+02  0.28819681670E+03  0.26296557443E+03 0.  0.
         25    1    3    3    0    0  0.58884958100E+02 -0.39493934977E+01 -0.83027432728E+02  0.16131986451E+03  0.12509000000E+03 0.  0.
         25    1    1    2    0    0 -0.68509119693E+02  0.19340484212E+02 -0.84111838686E+02  0.16670291934E+03  0.12509000000E+03 0.  0.
         25    1    3    3    0    0  0.96241615934E+01 -0.15391090714E+02 -0.10988300070E+02  0.12687695219E+03  0.12509000000E+03 0.  0.
<mgrwt>
<rscale>  2 0.41857417E+03</rscale>
<asrwt>0</asrwt>
<pdfrwt beam="1">  1       21 0.20350895E-01 0.41857417E+03</pdfrwt>
<pdfrwt beam="2">  1       21 0.46546125E-01 0.41857417E+03</pdfrwt>
<totfact> 0.92581102E+04</totfact>
</mgrwt>
</event>
<event>
 6    0  0.1539497E-004  0.4320560E+03  0.7546771E-02  0.1033212E+00
         21   -1    0    0  502  501  0.00000000000E+00  0.00000000000E+00  0.13214467832E+03  0.13214467832E+03  0.00000000000E+00 0.  1.
         21   -1    0    0  501  502 -0.00000000000E+00 -0.00000000000E+00 -0.35315917960E+03  0.35315917960E+03  0.00000000000E+00 0.  1.
      99925    2    1    2    0    0  0.52950953019E+02  0.72353128172E+02 -0.15121844719E+03  0.31631339710E+03  0.26296077242E+03 0.  0.
         25    1    3    3    0    0  0.26932178015E+02 -0.57230647730E+01 -0.68595516536E+02  0.14529607246E+03  0.12509000000E+03 0.  0.
         25    1    3    3    0    0  0.26018775004E+02  0.78076192945E+02 -0.82622930656E+02  0.17101732464E+03  0.12509000000E+03 0.  0.
         25    1    1    2    0    0 -0.52950953019E+02 -0.72353128172E+02 -0.69796054085E+02  0.16899046082E+03  0.12509000000E+03 0.  0.
<mgrwt>
<rscale>  2 0.43205604E+03</rscale>
<asrwt>0</asrwt>
<pdfrwt beam="1">  1       21 0.19433041E-01 0.43205604E+03</pdfrwt>
<pdfrwt beam="2">  1       21 0.51935172E-01 0.43205604E+03</pdfrwt>
<totfact> 0.79907567E+04</totfact>
</mgrwt>
</event>
<event>
 6    0  0.1539497E-004  0.4799613E+03  0.7546771E-02  0.1019146E+00
         21   -1    0    0  502  501  0.00000000000E+00  0.00000000000E+00  0.44503904671E+03  0.44503904671E+03  0.00000000000E+00 0.  1.
         21   -1    0    0  501  502 -0.00000000000E+00 -0.00000000000E+00 -0.12940599454E+03  0.12940599454E+03  0.00000000000E+00 0.  1.
      99925    2    1    2    0    0 -0.12665220663E+03 -0.47157655009E+02  0.20289650105E+03  0.35852453752E+03  0.26288443848E+03 0.  0.
         25    1    3    3    0    0 -0.36208412582E+02 -0.34582545091E+02  0.58893746468E+02  0.14704755367E+03  0.12509000000E+03 0.  0.
         25    1    3    3    0    0 -0.90443794050E+02 -0.12575109917E+02  0.14400275458E+03  0.21147698385E+03  0.12509000000E+03 0.  0.
         25    1    1    2    0    0  0.12665220663E+03  0.47157655009E+02  0.11273655112E+03  0.21592050372E+03  0.12509000000E+03 0.  0.
<mgrwt>
<rscale>  2 0.47996133E+03</rscale>
<asrwt>0</asrwt>
<pdfrwt beam="1">  1       21 0.65446918E-01 0.47996133E+03</pdfrwt>
<pdfrwt beam="2">  1       21 0.19030294E-01 0.47996133E+03</pdfrwt>
<totfact> 0.49714071E+04</totfact>
</mgrwt>
</event>
<event>
 6    0  0.1539497E-004  0.5239080E+03  0.7546771E-02  0.1007720E+00
         21   -1    0    0  502  501  0.00000000000E+00  0.00000000000E+00  0.25663761469E+03  0.25663761469E+03  0.00000000000E+00 0. -1.
         21   -1    0    0  501  502 -0.00000000000E+00 -0.00000000000E+00 -0.26738049397E+03  0.26738049397E+03  0.00000000000E+00 0. -1.
      99925    2    1    2    0    0  0.86617544085E+02  0.13778824557E+03  0.41957298839E+02  0.31209119570E+03  0.26296824894E+03 0.  0.
         25    1    1    2    0    0 -0.86617544085E+02 -0.13778824557E+03 -0.52700178118E+02  0.21192691295E+03  0.12509000000E+03 0.  0.
         25    1    3    3    0    0  0.63329426575E+02  0.60862517609E+02  0.55910209597E+02  0.16275233319E+03  0.12509000000E+03 0.  0.
         25    1    3    3    0    0  0.23288117509E+02  0.76925727962E+02 -0.13952910758E+02  0.14933886252E+03  0.12509000000E+03 0.  0.
<mgrwt>
<rscale>  2 0.52390798E+03</rscale>
<asrwt>0</asrwt>
<pdfrwt beam="1">  1       21 0.37740826E-01 0.52390798E+03</pdfrwt>
<pdfrwt beam="2">  1       21 0.39320661E-01 0.52390798E+03</pdfrwt>
<totfact> 0.38098819E+04</totfact>
</mgrwt>
</event>
<event>
 6    0  0.1539497E-004  0.4664010E+03  0.7546771E-02  0.1022941E+00
         21   -1    0    0  502  501  0.00000000000E+00  0.00000000000E+00  0.21063693063E+03  0.21063693063E+03  0.00000000000E+00 0.  1.
         21   -1    0    0  501  502 -0.00000000000E+00 -0.00000000000E+00 -0.25818111491E+03  0.25818111491E+03  0.00000000000E+00 0.  1.
      99925    2    1    2    0    0 -0.20079437959E+02 -0.11084971033E+03 -0.80614513206E+02  0.29726048416E+03  0.26300998763E+03 0.  0.
         25    1    3    3    0    0 -0.25104487968E+02 -0.51281505597E+02 -0.12484187313E+01  0.13751034427E+03  0.12509000000E+03 0.  0.
         25    1    1    2    0    0  0.20079437959E+02  0.11084971033E+03  0.33070328928E+02  0.17155756137E+03  0.12509000000E+03 0.  0.
         25    1    3    3    0    0  0.50250500085E+01 -0.59568204734E+02 -0.79366094474E+02  0.15975013989E+03  0.12509000000E+03 0.  0.
<mgrwt>
<rscale>  2 0.46640102E+03</rscale>
<asrwt>0</asrwt>
<pdfrwt beam="1">  1       21 0.30976019E-01 0.46640102E+03</pdfrwt>
<pdfrwt beam="2">  1       21 0.37967811E-01 0.46640102E+03</pdfrwt>
<totfact> 0.61735385E+04</totfact>
</mgrwt>
</event>
<event>
 6    0  0.1539497E-004  0.4203249E+03  0.7546771E-02  0.1036961E+00
         21   -1    0    0  502  501  0.00000000000E+00  0.00000000000E+00  0.26908467604E+03  0.26908467604E+03  0.00000000000E+00 0. -1.
         21   -1    0    0  501  502 -0.00000000000E+00 -0.00000000000E+00 -0.16414259120E+03  0.16414259120E+03  0.00000000000E+00 0. -1.
      99925    2    1    2    0    0 -0.14699410477E+02  0.53016273753E+02  0.14346391861E+02  0.26927030448E+03  0.26319931604E+03 0.  0.
         25    1    3    3    0    0 -0.15067856613E+02  0.14080278875E+02  0.45343085125E+02  0.13464322495E+03  0.12509000000E+03 0.  0.
         25    1    1    2    0    0  0.14699410477E+02 -0.53016273753E+02  0.90595692985E+02  0.16395696276E+03  0.12509000000E+03 0.  0.
         25    1    3    3    0    0  0.36844613592E+00  0.38935994878E+02 -0.30996693264E+02  0.13462707953E+03  0.12509000000E+03 0.  0.
<mgrwt>
<rscale>  2 0.42032490E+03</rscale>
<asrwt>0</asrwt>
<pdfrwt beam="1">  1       21 0.39571276E-01 0.42032490E+03</pdfrwt>
<pdfrwt beam="2">  1       21 0.24138616E-01 0.42032490E+03</pdfrwt>
<totfact> 0.93446160E+04</totfact>
</mgrwt>
</event>
<event>
 6    0  0.1539497E-004  0.4863542E+03  0.7546771E-02  0.1017403E+00
         21   -1    0    0  502  501  0.00000000000E+00  0.00000000000E+00  0.12009255772E+04  0.12009255772E+04  0.00000000000E+00 0.  1.
         21   -1    0    0  501  502 -0.00000000000E+00 -0.00000000000E+00 -0.49241271835E+02  0.49241271835E+02  0.00000000000E+00 0.  1.
      99925    2    1    2    0    0  0.12349529300E+03  0.49502610873E+02  0.82241139574E+03  0.87364360541E+03  0.26304191597E+03 0.  0.
         25    1    1    2    0    0 -0.12349529300E+03 -0.49502610873E+02  0.32927290962E+03  0.37652324362E+03  0.12509000000E+03 0.  0.
         25    1    3    3    0    0  0.10598356235E+03  0.24145918935E+02  0.47959224754E+03  0.50741676450E+03  0.12509000000E+03 0.  0.
         25    1    3    3    0    0  0.17511730647E+02  0.25356691937E+02  0.34281914819E+03  0.36622684091E+03  0.12509000000E+03 0.  0.
<mgrwt>
<rscale>  2 0.48635420E+03</rscale>
<asrwt>0</asrwt>
<pdfrwt beam="1">  1       21 0.17660668E+00 0.48635420E+03</pdfrwt>
<pdfrwt beam="2">  1       21 0.72413643E-02 0.48635420E+03</pdfrwt>
<totfact> 0.24143430E+04</totfact>
</mgrwt>
</event>
<event>
 6    0  0.1539497E-004  0.4910012E+03  0.7546771E-02  0.1016155E+00
         21   -1    0    0  502  501  0.00000000000E+00  0.00000000000E+00  0.16791720345E+03  0.16791720345E+03  0.00000000000E+00 0.  1.
         21   -1    0    0  501  502 -0.00000000000E+00 -0.00000000000E+00 -0.35893011791E+03  0.35893011791E+03  0.00000000000E+00 0.  1.
      99925    2    1    2    0    0 -0.18135164906E+02 -0.71469696329E+02 -0.24989093982E+03  0.37015995215E+03  0.26293745772E+03 0.  0.
         25    1    3    3    0    0  0.10635373067E+02 -0.71955966001E+02 -0.13481374703E+03  0.19777013599E+03  0.12509000000E+03 0.  0.
         25    1    3    3    0    0 -0.28770537972E+02  0.48626967209E+00 -0.11507719280E+03  0.17238981616E+03  0.12509000000E+03 0.  0.
         25    1    1    2    0    0  0.18135164906E+02  0.71469696329E+02  0.58878025355E+02  0.15668736921E+03  0.12509000000E+03 0.  0.
<mgrwt>
<rscale>  2 0.49100119E+03</rscale>
<asrwt>0</asrwt>
<pdfrwt beam="1">  1       21 0.24693707E-01 0.49100119E+03</pdfrwt>
<pdfrwt beam="2">  1       21 0.52783840E-01 0.49100119E+03</pdfrwt>
<totfact> 0.48129494E+04</totfact>
</mgrwt>
</event>
<event>
 6    0  0.1539497E-004  0.4076185E+03  0.7546771E-02  0.1041173E+00
         21   -1    0    0  502  501  0.00000000000E+00  0.00000000000E+00  0.28510263299E+03  0.28510263299E+03  0.00000000000E+00 0. -1.
         21   -1    0    0  501  502 -0.00000000000E+00 -0.00000000000E+00 -0.14569561763E+03  0.14569561763E+03  0.00000000000E+00 0. -1.
      99925    2    1    2    0    0  0.52909193704E+02 -0.38204750398E+01  0.11887490637E+03  0.29338262411E+03  0.26292231164E+03 0.  0.
         25    1    3    3    0    0  0.63409109728E+02 -0.89551381434E+00  0.43070960194E+02  0.14671105225E+03  0.12509000000E+03 0.  0.
         25    1    1    2    0    0 -0.52909193704E+02  0.38204750398E+01  0.20532108994E+02  0.13741562650E+03  0.12509000000E+03 0.  0.
         25    1    3    3    0    0 -0.10499916024E+02 -0.29249612254E+01  0.75803946173E+02  0.14667157185E+03  0.12509000000E+03 0.  0.
<mgrwt>
<rscale>  2 0.40761847E+03</rscale>
<asrwt>0</asrwt>
<pdfrwt beam="1">  1       21 0.41926858E-01 0.40761847E+03</pdfrwt>
<pdfrwt beam="2">  1       21 0.21425826E-01 0.40761847E+03</pdfrwt>
<totfact> 0.10459065E+05</totfact>
</mgrwt>
</event>
<event>
 6    0  0.1539497E-004  0.3955456E+03  0.7546771E-02  0.1045333E+00
         21   -1    0    0  502  501  0.00000000000E+00  0.00000000000E+00  0.10647438726E+03  0.10647438726E+03  0.00000000000E+00 0. -1.
         21   -1    0    0  501  502 -0.00000000000E+00 -0.00000000000E+00 -0.36735676609E+03  0.36735676609E+03  0.00000000000E+00 0. -1.
      99925    2    1    2    0    0 -0.25652649173E+02 -0.24115328696E+02 -0.18070301803E+03  0.32113588333E+03  0.26312557335E+03 0.  0.
         25    1    3    3    0    0 -0.27218612987E+02  0.20546169351E+02 -0.11328087680E+03  0.17217160950E+03  0.12509000000E+03 0.  0.
         25    1    3    3    0    0  0.15659638141E+01 -0.44661498047E+02 -0.67422141225E+02  0.14896427383E+03  0.12509000000E+03 0.  0.
         25    1    1    2    0    0  0.25652649173E+02  0.24115328696E+02 -0.80179360799E+02  0.15269527002E+03  0.12509000000E+03 0.  0.
<mgrwt>
<rscale>  2 0.39554563E+03</rscale>
<asrwt>0</asrwt>
<pdfrwt beam="1">  1       21 0.15657998E-01 0.39554563E+03</pdfrwt>
<pdfrwt beam="2">  1       21 0.54023054E-01 0.39554563E+03</pdfrwt>
<totfact> 0.11095064E+05</totfact>
</mgrwt>
</event>
<event>
 6    0  0.1539497E-004  0.5390388E+03  0.7546771E-02  0.1004063E+00
         21   -1    0    0  502  501  0.00000000000E+00  0.00000000000E+00  0.26522361601E+03  0.26522361601E+03  0.00000000000E+00 0. -1.
         21   -1    0    0  501  502 -0.00000000000E+00 -0.00000000000E+00 -0.27388481102E+03  0.27388481102E+03  0.00000000000E+00 0. -1.
      99925    2    1    2    0    0 -0.14161434004E+03  0.66714821365E+02  0.85323275557E+02  0.31778044076E+03  0.26305675906E+03 0.  0.
         25    1    3    3    0    0 -0.81020173510E+02  0.66326047151E+02  0.20493055052E+02  0.16441072487E+03  0.12509000000E+03 0.  0.
         25    1    3    3    0    0 -0.60594166533E+02  0.38877421343E+00  0.64830220505E+02  0.15336971590E+03  0.12509000000E+03 0.  0.
         25    1    1    2    0    0  0.14161434004E+03 -0.66714821365E+02 -0.93984470575E+02  0.22132798627E+03  0.12509000000E+03 0.  0.
<mgrwt>
<rscale>  2 0.53903885E+03</rscale>
<asrwt>0</asrwt>
<pdfrwt beam="1">  1       21 0.39003473E-01 0.53903885E+03</pdfrwt>
<pdfrwt beam="2">  1       21 0.40277178E-01 0.53903885E+03</pdfrwt>
<totfact> 0.33783034E+04</totfact>
</mgrwt>
</event>
<event>
 6    0  0.1539497E-004  0.4165064E+03  0.7546771E-02  0.1038209E+00
         21   -1    0    0  502  501  0.00000000000E+00  0.00000000000E+00  0.13227868559E+04  0.13227868559E+04  0.00000000000E+00 0.  1.
         21   -1    0    0  501  502 -0.00000000000E+00 -0.00000000000E+00 -0.32786381999E+02  0.32786381999E+02  0.00000000000E+00 0.  1.
      99925    2    1    2    0    0  0.59985622624E+02 -0.35004365109E+02  0.78647999465E+03  0.83211936063E+03  0.26277037097E+03 0.  0.
         25    1    3    3    0    0  0.57043336003E+01  0.15095515985E+02  0.38795043204E+03  0.40793805884E+03  0.12509000000E+03 0.  0.
         25    1    3    3    0    0  0.54281289024E+02 -0.50099881094E+02  0.39852956261E+03  0.42418130180E+03  0.12509000000E+03 0.  0.
         25    1    1    2    0    0 -0.59985622624E+02  0.35004365109E+02  0.50352047926E+03  0.52345387728E+03  0.12509000000E+03 0.  0.
<mgrwt>
<rscale>  2 0.41650640E+03</rscale>
<asrwt>0</asrwt>
<pdfrwt beam="1">  1       21 0.19452744E+00 0.41650640E+03</pdfrwt>
<pdfrwt beam="2">  1       21 0.48215276E-02 0.41650640E+03</pdfrwt>
<totfact> 0.37592852E+04</totfact>
</mgrwt>
</event>
<event>
 6    0  0.1539497E-004  0.4144512E+03  0.7546771E-02  0.1038888E+00
         21   -1    0    0  502  501  0.00000000000E+00  0.00000000000E+00  0.43698135122E+02  0.43698135122E+02  0.00000000000E+00 0. -1.
         21   -1    0    0  501  502 -0.00000000000E+00 -0.00000000000E+00 -0.98270650412E+03  0.98270650412E+03  0.00000000000E+00 0. -1.
      99925    2    1    2    0    0 -0.16223698171E+02 -0.10943200186E+02 -0.45268234948E+03  0.52386760839E+03  0.26293154923E+03 0.  0.
         25    1    3    3    0    0 -0.28460366055E+01 -0.18873192940E+02 -0.30183537853E+03  0.32728642069E+03  0.12509000000E+03 0.  0.
         25    1    1    2    0    0  0.16223698171E+02  0.10943200186E+02 -0.48632601952E+03  0.50253703085E+03  0.12509000000E+03 0.  0.
         25    1    3    3    0    0 -0.13377661566E+02  0.79299927542E+01 -0.15084697095E+03  0.19658118770E+03  0.12509000000E+03 0.  0.
<mgrwt>
<rscale>  2 0.41445116E+03</rscale>
<asrwt>0</asrwt>
<pdfrwt beam="1">  1       21 0.64261969E-02 0.41445116E+03</pdfrwt>
<pdfrwt beam="2">  1       21 0.14451565E+00 0.41445116E+03</pdfrwt>
<totfact> 0.53068106E+04</totfact>
</mgrwt>
</event>
<event>
 6    0  0.1539497E-004  0.4502225E+03  0.7546771E-02  0.1027656E+00
         21   -1    0    0  502  501  0.00000000000E+00  0.00000000000E+00  0.24301699253E+03  0.24301699253E+03  0.00000000000E+00 0.  1.
         21   -1    0    0  501  502 -0.00000000000E+00 -0.00000000000E+00 -0.20852485584E+03  0.20852485584E+03  0.00000000000E+00 0.  1.
      99925    2    1    2    0    0 -0.48901879464E+02  0.17004380773E+02  0.11756446416E+03  0.29270525790E+03  0.26301030776E+03 0.  0.
         25    1    3    3    0    0 -0.12114257648E+01  0.39426817568E+02  0.71372525344E+02  0.14932343075E+03  0.12509000000E+03 0.  0.
         25    1    3    3    0    0 -0.47690453699E+02 -0.22422436795E+02  0.46191938817E+02  0.14338182715E+03  0.12509000000E+03 0.  0.
         25    1    1    2    0    0  0.48901879464E+02 -0.17004380773E+02 -0.83072327465E+02  0.15883659047E+03  0.12509000000E+03 0.  0.
<mgrwt>
<rscale>  2 0.45022254E+03</rscale>
<asrwt>0</asrwt>
<pdfrwt beam="1">  1       21 0.35737793E-01 0.45022254E+03</pdfrwt>
<pdfrwt beam="2">  1       21 0.30665420E-01 0.45022254E+03</pdfrwt>
<totfact> 0.71486214E+04</totfact>
</mgrwt>
</event>
<event>
 6    0  0.1539497E-004  0.4036957E+03  0.7546771E-02  0.1042507E+00
         21   -1    0    0  502  501  0.00000000000E+00  0.00000000000E+00  0.71131780195E+03  0.71131780195E+03  0.00000000000E+00 0. -1.
         21   -1    0    0  501  502 -0.00000000000E+00 -0.00000000000E+00 -0.57277558431E+02  0.57277558431E+02  0.00000000000E+00 0. -1.
      99925    2    1    2    0    0 -0.33807689261E+02 -0.18082258464E+02  0.50206328869E+03  0.56805999985E+03  0.26297279261E+03 0.  0.
         25    1    1    2    0    0  0.33807689261E+02  0.18082258464E+02  0.15197695483E+03  0.20053536053E+03  0.12509000000E+03 0.  0.
         25    1    3    3    0    0  0.11495895315E+01 -0.48993454890E+01  0.32337093800E+03  0.34675870110E+03  0.12509000000E+03 0.  0.
         25    1    3    3    0    0 -0.34957278792E+02 -0.13182912975E+02  0.17869235069E+03  0.22130129876E+03  0.12509000000E+03 0.  0.
<mgrwt>
<rscale>  2 0.40369566E+03</rscale>
<asrwt>0</asrwt>
<pdfrwt beam="1">  1       21 0.10460555E+00 0.40369566E+03</pdfrwt>
<pdfrwt beam="2">  1       21 0.84231708E-02 0.40369566E+03</pdfrwt>
<totfact> 0.75408943E+04</totfact>
</mgrwt>
</event>
<event>
 6    0  0.1539497E-004  0.4005452E+03  0.7546771E-02  0.1043591E+00
         21   -1    0    0  502  501  0.00000000000E+00  0.00000000000E+00  0.13829663991E+03  0.13829663991E+03  0.00000000000E+00 0.  1.
         21   -1    0    0  501  502 -0.00000000000E+00 -0.00000000000E+00 -0.29002237438E+03  0.29002237438E+03  0.00000000000E+00 0.  1.
      99925    2    1    2    0    0 -0.15925961207E+02  0.38227534772E+02 -0.78565213260E+02  0.27760421536E+03  0.26301449959E+03 0.  0.
         25    1    3    3    0    0 -0.14415665378E+02 -0.21287965032E+02 -0.39170609998E+02  0.13357707008E+03  0.12509000000E+03 0.  0.
         25    1    3    3    0    0 -0.15102958296E+01  0.59515499803E+02 -0.39394603262E+02  0.14402714528E+03  0.12509000000E+03 0.  0.
         25    1    1    2    0    0  0.15925961207E+02 -0.38227534772E+02 -0.73160521209E+02  0.15071479894E+03  0.12509000000E+03 0.  0.
<mgrwt>
<rscale>  2 0.40054523E+03</rscale>
<asrwt>0</asrwt>
<pdfrwt beam="1">  1       21 0.20337741E-01 0.40054523E+03</pdfrwt>
<pdfrwt beam="2">  1       21 0.42650349E-01 0.40054523E+03</pdfrwt>
<totfact> 0.11165616E+05</totfact>
</mgrwt>
</event>
<event>
 6    0  0.1539497E-004  0.4140857E+03  0.7546771E-02  0.1039009E+00
         21   -1    0    0  502  501  0.00000000000E+00  0.00000000000E+00  0.72653446046E+02  0.72653446046E+02  0.00000000000E+00 0.  1.
         21   -1    0    0  501  502 -0.00000000000E+00 -0.00000000000E+00 -0.59001672273E+03  0.59001672273E+03  0.00000000000E+00 0.  1.
      99925    2    1    2    0    0 -0.26918764159E+02 -0.19548057527E+02 -0.24441995778E+03  0.36059019617E+03  0.26301602117E+03 0.  0.
         25    1    1    2    0    0  0.26918764159E+02  0.19548057527E+02 -0.27294331890E+03  0.30207997261E+03  0.12509000000E+03 0.  0.
         25    1    3    3    0    0 -0.21278521395E+02 -0.32391104194E+02 -0.79775635052E+02  0.15334151151E+03  0.12509000000E+03 0.  0.
         25    1    3    3    0    0 -0.56402427640E+01  0.12843046667E+02 -0.16464432273E+03  0.20724868466E+03  0.12509000000E+03 0.  0.
<mgrwt>
<rscale>  2 0.41408573E+03</rscale>
<asrwt>0</asrwt>
<pdfrwt beam="1">  1       21 0.10684330E-01 0.41408573E+03</pdfrwt>
<pdfrwt beam="2">  1       21 0.86767164E-01 0.41408573E+03</pdfrwt>
<totfact> 0.76936329E+04</totfact>
</mgrwt>
</event>
<event>
 6    0  0.1539497E-004  0.3944812E+03  0.7546771E-02  0.1045708E+00
         21   -1    0    0  502  501  0.00000000000E+00  0.00000000000E+00  0.14498132645E+03  0.14498132645E+03  0.00000000000E+00 0. -1.
         21   -1    0    0  501  502 -0.00000000000E+00 -0.00000000000E+00 -0.26833696966E+03  0.26833696966E+03  0.00000000000E+00 0. -1.
      99925    2    1    2    0    0  0.96265051399E+01  0.22166737303E+02 -0.60437224509E+02  0.27122582848E+03  0.26329974950E+03 0.  0.
         25    1    3    3    0    0 -0.56658707034E+01  0.47518431701E+02 -0.14481164156E+02  0.13471197296E+03  0.12509000000E+03 0.  0.
         25    1    1    2    0    0 -0.96265051399E+01 -0.22166737303E+02 -0.62918418709E+02  0.14209246763E+03  0.12509000000E+03 0.  0.
         25    1    3    3    0    0  0.15292375843E+02 -0.25351694398E+02 -0.45956060353E+02  0.13651385553E+03  0.12509000000E+03 0.  0.
<mgrwt>
<rscale>  2 0.39448118E+03</rscale>
<asrwt>0</asrwt>
<pdfrwt beam="1">  1       21 0.21320784E-01 0.39448118E+03</pdfrwt>
<pdfrwt beam="2">  1       21 0.39461319E-01 0.39448118E+03</pdfrwt>
<totfact> 0.11993533E+05</totfact>
</mgrwt>
</event>
<event>
 6    0  0.1539497E-004  0.4046714E+03  0.7546771E-02  0.1042174E+00
         21   -1    0    0  502  501  0.00000000000E+00  0.00000000000E+00  0.24387493471E+03  0.24387493471E+03  0.00000000000E+00 0. -1.
         21   -1    0    0  501  502 -0.00000000000E+00 -0.00000000000E+00 -0.16787182388E+03  0.16787182388E+03  0.00000000000E+00 0. -1.
      99925    2    1    2    0    0  0.13978536538E+02 -0.50530870765E+02  0.62550504463E+02  0.27544837598E+03  0.26307883578E+03 0.  0.
         25    1    3    3    0    0  0.37864489268E+02 -0.26614235778E+02  0.44748951657E+01  0.13345250046E+03  0.12509000000E+03 0.  0.
         25    1    3    3    0    0 -0.23885952730E+02 -0.23916634987E+02  0.58075609297E+02  0.14199587551E+03  0.12509000000E+03 0.  0.
         25    1    1    2    0    0 -0.13978536538E+02  0.50530870765E+02  0.13452606363E+02  0.13629838261E+03  0.12509000000E+03 0.  0.
<mgrwt>
<rscale>  2 0.40467137E+03</rscale>
<asrwt>0</asrwt>
<pdfrwt beam="1">  1       21 0.35863961E-01 0.40467137E+03</pdfrwt>
<pdfrwt beam="2">  1       21 0.24687033E-01 0.40467137E+03</pdfrwt>
<totfact> 0.10967884E+05</totfact>
</mgrwt>
</event>
<event>
 6    0  0.1539497E-004  0.4321381E+03  0.7546771E-02  0.1033187E+00
         21   -1    0    0  502  501  0.00000000000E+00  0.00000000000E+00  0.91530982412E+02  0.91530982412E+02  0.00000000000E+00 0.  1.
         21   -1    0    0  501  502 -0.00000000000E+00 -0.00000000000E+00 -0.51005499769E+03  0.51005499769E+03  0.00000000000E+00 0.  1.
      99925    2    1    2    0    0  0.36441044474E+02 -0.47243061048E+02 -0.36290896998E+03  0.45225280260E+03  0.26319160402E+03 0.  0.
         25    1    3    3    0    0  0.20349177774E+02 -0.52255062162E+02 -0.23811414514E+03  0.27475540899E+03  0.12509000000E+03 0.  0.
         25    1    1    2    0    0 -0.36441044474E+02  0.47243061048E+02 -0.55615045299E+02  0.14933317750E+03  0.12509000000E+03 0.  0.
         25    1    3    3    0    0  0.16091866699E+02  0.50120011139E+01 -0.12479482485E+03  0.17749739361E+03  0.12509000000E+03 0.  0.
<mgrwt>
<rscale>  2 0.43213810E+03</rscale>
<asrwt>0</asrwt>
<pdfrwt beam="1">  1       21 0.13460439E-01 0.43213810E+03</pdfrwt>
<pdfrwt beam="2">  1       21 0.75008088E-01 0.43213810E+03</pdfrwt>
<totfact> 0.70471952E+04</totfact>
</mgrwt>
</event>
<event>
 6    0  0.1539497E-004  0.4759593E+03  0.7546771E-02  0.1020252E+00
         21   -1    0    0  502  501  0.00000000000E+00  0.00000000000E+00  0.34882727572E+03  0.34882727572E+03  0.00000000000E+00 0. -1.
         21   -1    0    0  501  502 -0.00000000000E+00 -0.00000000000E+00 -0.16235635281E+03  0.16235635281E+03  0.00000000000E+00 0. -1.
      99925    2    1    2    0    0  0.71788845653E+02 -0.79174150759E+02  0.32291652130E+02  0.28570427216E+03  0.26298668374E+03 0.  0.
         25    1    3    3    0    0  0.34498076049E+02 -0.77631680893E+02  0.34712054997E+02  0.15514261179E+03  0.12509000000E+03 0.  0.
         25    1    3    3    0    0  0.37290769604E+02 -0.15424698661E+01 -0.24204028671E+01  0.13056166038E+03  0.12509000000E+03 0.  0.
         25    1    1    2    0    0 -0.71788845653E+02  0.79174150759E+02  0.15417927078E+03  0.22547935637E+03  0.12509000000E+03 0.  0.
<mgrwt>
<rscale>  2 0.47595934E+03</rscale>
<asrwt>0</asrwt>
<pdfrwt beam="1">  1       21 0.51298129E-01 0.47595934E+03</pdfrwt>
<pdfrwt beam="2">  1       21 0.23875934E-01 0.47595934E+03</pdfrwt>
<totfact> 0.54792485E+04</totfact>
</mgrwt>
</event>
<event>
 6    0  0.1539497E-004  0.4589157E+03  0.7546771E-02  0.1025096E+00
         21   -1    0    0  502  501  0.00000000000E+00  0.00000000000E+00  0.36586303571E+02  0.36586303571E+02  0.00000000000E+00 0.  1.
         21   -1    0    0  501  502 -0.00000000000E+00 -0.00000000000E+00 -0.14390876891E+04  0.14390876891E+04  0.00000000000E+00 0.  1.
      99925    2    1    2    0    0 -0.98444081262E+02 -0.27996081733E+02 -0.70058463086E+03  0.75538956530E+03  0.26328606617E+03 0.  0.
         25    1    3    3    0    0 -0.53075074554E+02 -0.26036034179E+02 -0.25201437311E+03  0.28749537556E+03  0.12509000000E+03 0.  0.
         25    1    1    2    0    0  0.98444081262E+02  0.27996081733E+02 -0.70191675471E+03  0.72028442741E+03  0.12509000000E+03 0.  0.
         25    1    3    3    0    0 -0.45369006707E+02 -0.19600475536E+01 -0.44857025774E+03  0.46789418973E+03  0.12509000000E+03 0.  0.
<mgrwt>
<rscale>  2 0.45891567E+03</rscale>
<asrwt>0</asrwt>
<pdfrwt beam="1">  1       21 0.53803397E-02 0.45891567E+03</pdfrwt>
<pdfrwt beam="2">  1       21 0.21163051E+00 0.45891567E+03</pdfrwt>
<totfact> 0.23653968E+04</totfact>
</mgrwt>
</event>
<event>
 6    0  0.1539497E-004  0.4850611E+03  0.7546771E-02  0.1017753E+00
         21   -1    0    0  502  501  0.00000000000E+00  0.00000000000E+00  0.12253082624E+03  0.12253082624E+03  0.00000000000E+00 0.  1.
         21   -1    0    0  501  502 -0.00000000000E+00 -0.00000000000E+00 -0.48005123904E+03  0.48005123904E+03  0.00000000000E+00 0.  1.
      99925    2    1    2    0    0  0.20478989896E+02  0.74931579916E+02 -0.36317804011E+03  0.45522655116E+03  0.26324663979E+03 0.  0.
         25    1    1    2    0    0 -0.20478989896E+02 -0.74931579916E+02  0.56576273063E+01  0.14735551412E+03  0.12509000000E+03 0.  0.
         25    1    3    3    0    0  0.50942401408E+01  0.22073075074E+02 -0.11269544822E+03  0.16988509080E+03  0.12509000000E+03 0.  0.
         25    1    3    3    0    0  0.15384749756E+02  0.52858504843E+02 -0.25048259189E+03  0.28534146036E+03  0.12509000000E+03 0.  0.
<mgrwt>
<rscale>  2 0.48506113E+03</rscale>
<asrwt>0</asrwt>
<pdfrwt beam="1">  1       21 0.18019239E-01 0.48506113E+03</pdfrwt>
<pdfrwt beam="2">  1       21 0.70595770E-01 0.48506113E+03</pdfrwt>
<totfact> 0.46460046E+04</totfact>
</mgrwt>
</event>
<event>
 6    0  0.1539497E-004  0.4030128E+03  0.7546771E-02  0.1042741E+00
         21   -1    0    0  502  501  0.00000000000E+00  0.00000000000E+00  0.15656121183E+03  0.15656121183E+03  0.00000000000E+00 0.  1.
         21   -1    0    0  501  502 -0.00000000000E+00 -0.00000000000E+00 -0.25935433726E+03  0.25935433726E+03  0.00000000000E+00 0.  1.
      99925    2    1    2    0    0  0.35125905621E+02 -0.39641362739E+01 -0.10525944261E+03  0.28590349410E+03  0.26346102949E+03 0.  0.
         25    1    1    2    0    0 -0.35125905621E+02  0.39641362739E+01  0.24663171701E+01  0.13001205499E+03  0.12509000000E+03 0.  0.
         25    1    3    3    0    0 -0.21652939026E+02  0.17402286374E+00 -0.65393250317E+02  0.14280288981E+03  0.12509000000E+03 0.  0.
         25    1    3    3    0    0  0.56778844648E+02 -0.41381591376E+01 -0.39866192288E+02  0.14310060429E+03  0.12509000000E+03 0.  0.
<mgrwt>
<rscale>  2 0.40301280E+03</rscale>
<asrwt>0</asrwt>
<pdfrwt beam="1">  1       21 0.23023708E-01 0.40301280E+03</pdfrwt>
<pdfrwt beam="2">  1       21 0.38140344E-01 0.40301280E+03</pdfrwt>
<totfact> 0.11077893E+05</totfact>
</mgrwt>
</event>
<event>
 6    0  0.1539497E-004  0.4385883E+03  0.7546771E-02  0.1031181E+00
         21   -1    0    0  502  501  0.00000000000E+00  0.00000000000E+00  0.97930995931E+02  0.97930995931E+02  0.00000000000E+00 0. -1.
         21   -1    0    0  501  502 -0.00000000000E+00 -0.00000000000E+00 -0.49105921932E+03  0.49105921932E+03  0.00000000000E+00 0. -1.
      99925    2    1    2    0    0  0.22604514523E+02 -0.88004370747E+02 -0.29763937873E+03  0.40727240957E+03  0.26272777257E+03 0.  0.
         25    1    1    2    0    0 -0.22604514523E+02  0.88004370747E+02 -0.95488844661E+02  0.18171780568E+03  0.12509000000E+03 0.  0.
         25    1    3    3    0    0  0.18367911491E+02 -0.63519628778E+01 -0.16075530048E+03  0.20461549877E+03  0.12509000000E+03 0.  0.
         25    1    3    3    0    0  0.42366030317E+01 -0.81652407869E+02 -0.13688407825E+03  0.20265691080E+03  0.12509000000E+03 0.  0.
<mgrwt>
<rscale>  2 0.43858827E+03</rscale>
<asrwt>0</asrwt>
<pdfrwt beam="1">  1       21 0.14401617E-01 0.43858827E+03</pdfrwt>
<pdfrwt beam="2">  1       21 0.72214591E-01 0.43858827E+03</pdfrwt>
<totfact> 0.67727494E+04</totfact>
</mgrwt>
</event>
<event>
 6    0  0.1539497E-004  0.4256976E+03  0.7546771E-02  0.1035228E+00
         21   -1    0    0  502  501  0.00000000000E+00  0.00000000000E+00  0.30978611939E+03  0.30978611939E+03  0.00000000000E+00 0.  1.
         21   -1    0    0  501  502 -0.00000000000E+00 -0.00000000000E+00 -0.14624478370E+03  0.14624478370E+03  0.00000000000E+00 0.  1.
      99925    2    1    2    0    0 -0.46872586666E+02 -0.50488758310E+02  0.56978179727E+02  0.27784737858E+03  0.26307128069E+03 0.  0.
         25    1    3    3    0    0 -0.27080686820E+02 -0.81694691869E+01 -0.96634662054E+01  0.12861179769E+03  0.12509000000E+03 0.  0.
         25    1    1    2    0    0  0.46872586666E+02  0.50488758310E+02  0.10656315596E+03  0.17818352451E+03  0.12509000000E+03 0.  0.
         25    1    3    3    0    0 -0.19791899846E+02 -0.42319289123E+02  0.66641645932E+02  0.14923558089E+03  0.12509000000E+03 0.  0.
<mgrwt>
<rscale>  2 0.42569756E+03</rscale>
<asrwt>0</asrwt>
<pdfrwt beam="1">  1       21 0.45556782E-01 0.42569756E+03</pdfrwt>
<pdfrwt beam="2">  1       21 0.21506586E-01 0.42569756E+03</pdfrwt>
<totfact> 0.87032971E+04</totfact>
</mgrwt>
</event>
<event>
 6    0  0.1539497E-004  0.4098362E+03  0.7546771E-02  0.1040426E+00
         21   -1    0    0  502  501  0.00000000000E+00  0.00000000000E+00  0.75948381707E+03  0.75948381707E+03  0.00000000000E+00 0. -1.
         21   -1    0    0  501  502 -0.00000000000E+00 -0.00000000000E+00 -0.55289434532E+02  0.55289434532E+02  0.00000000000E+00 0. -1.
      99925    2    1    2    0    0 -0.25958272336E+02 -0.49299263247E+02  0.51835025533E+03  0.58392742215E+03  0.26302090768E+03 0.  0.
         25    1    3    3    0    0 -0.49149463960E+02 -0.37361399164E+02  0.23881480307E+03  0.27657107987E+03  0.12509000000E+03 0.  0.
         25    1    3    3    0    0  0.23191191624E+02 -0.11937864082E+02  0.27953545226E+03  0.30735634227E+03  0.12509000000E+03 0.  0.
         25    1    1    2    0    0  0.25958272336E+02  0.49299263247E+02  0.18584412721E+03  0.23084582946E+03  0.12509000000E+03 0.  0.
<mgrwt>
<rscale>  2 0.40983622E+03</rscale>
<asrwt>0</asrwt>
<pdfrwt beam="1">  1       21 0.11168879E+00 0.40983622E+03</pdfrwt>
<pdfrwt beam="2">  1       21 0.81307996E-02 0.40983622E+03</pdfrwt>
<totfact> 0.68198822E+04</totfact>
</mgrwt>
</event>
<event>
 6    0  0.1539497E-004  0.4232504E+03  0.7546771E-02  0.1036014E+00
         21   -1    0    0  502  501  0.00000000000E+00  0.00000000000E+00  0.10465129352E+03  0.10465129352E+03  0.00000000000E+00 0.  1.
         21   -1    0    0  501  502 -0.00000000000E+00 -0.00000000000E+00 -0.42794713820E+03  0.42794713820E+03  0.00000000000E+00 0.  1.
      99925    2    1    2    0    0 -0.25399940497E+02  0.66543614570E+02 -0.25855455542E+03  0.37476259215E+03  0.26176961766E+03 0.  0.
         25    1    3    3    0    0  0.14986991925E+02  0.14633041274E+02 -0.15078303022E+03  0.19703239867E+03  0.12509000000E+03 0.  0.
         25    1    1    2    0    0  0.25399940497E+02 -0.66543614570E+02 -0.64741289263E+02  0.15783583957E+03  0.12509000000E+03 0.  0.
         25    1    3    3    0    0 -0.40386932422E+02  0.51910573295E+02 -0.10777152520E+03  0.17773019348E+03  0.12509000000E+03 0.  0.
<mgrwt>
<rscale>  2 0.42325038E+03</rscale>
<asrwt>0</asrwt>
<pdfrwt beam="1">  1       21 0.15389896E-01 0.42325038E+03</pdfrwt>
<pdfrwt beam="2">  1       21 0.62933402E-01 0.42325038E+03</pdfrwt>
<totfact> 0.81709989E+04</totfact>
</mgrwt>
</event>
<event>
 6    0  0.1539497E-004  0.4128313E+03  0.7546771E-02  0.1039425E+00
         21   -1    0    0  502  501  0.00000000000E+00  0.00000000000E+00  0.91955999101E+03  0.91955999101E+03  0.00000000000E+00 0.  1.
         21   -1    0    0  501  502 -0.00000000000E+00 -0.00000000000E+00 -0.46334568675E+02  0.46334568675E+02  0.00000000000E+00 0.  1.
      99925    2    1    2    0    0 -0.47013387631E+02  0.19426774371E+02  0.67351719591E+03  0.72481668434E+03  0.26295656396E+03 0.  0.
         25    1    1    2    0    0  0.47013387631E+02 -0.19426774371E+02  0.19970822642E+03  0.24107787534E+03  0.12509000000E+03 0.  0.
         25    1    3    3    0    0 -0.47692343381E+02  0.24279481827E+02  0.42991504952E+03  0.45093071614E+03  0.12509000000E+03 0.  0.
         25    1    3    3    0    0  0.67895574995E+00 -0.48527074563E+01  0.24360214639E+03  0.27388596820E+03  0.12509000000E+03 0.  0.
<mgrwt>
<rscale>  2 0.41283128E+03</rscale>
<asrwt>0</asrwt>
<pdfrwt beam="1">  1       21 0.13522940E+00 0.41283128E+03</pdfrwt>
<pdfrwt beam="2">  1       21 0.68139077E-02 0.41283128E+03</pdfrwt>
<totfact> 0.57142933E+04</totfact>
</mgrwt>
</event>
<event>
 6    0  0.1539497E-004  0.4427536E+03  0.7546771E-02  0.1029905E+00
         21   -1    0    0  502  501  0.00000000000E+00  0.00000000000E+00  0.11681040627E+03  0.11681040627E+03  0.00000000000E+00 0.  1.
         21   -1    0    0  501  502 -0.00000000000E+00 -0.00000000000E+00 -0.41954893212E+03  0.41954893212E+03  0.00000000000E+00 0.  1.
      99925    2    1    2    0    0 -0.58347565453E+02  0.36795578214E+02 -0.28270049843E+03  0.39211169157E+03  0.26281867111E+03 0.  0.
         25    1    3    3    0    0 -0.38627325528E+01 -0.14208754806E+02 -0.13652108555E+03  0.18574801295E+03  0.12509000000E+03 0.  0.
         25    1    1    2    0    0  0.58347565453E+02 -0.36795578214E+02 -0.20038027427E+02  0.14424764682E+03  0.12509000000E+03 0.  0.
         25    1    3    3    0    0 -0.54484832900E+02  0.51004333021E+02 -0.14617941288E+03  0.20636367862E+03  0.12509000000E+03 0.  0.
<mgrwt>
<rscale>  2 0.44275357E+03</rscale>
<asrwt>0</asrwt>
<pdfrwt beam="1">  1       21 0.17178001E-01 0.44275357E+03</pdfrwt>
<pdfrwt beam="2">  1       21 0.61698373E-01 0.44275357E+03</pdfrwt>
<totfact> 0.69248782E+04</totfact>
</mgrwt>
</event>
<event>
 6    0  0.1633723E-004  0.4109024E+03  0.7546771E-02  0.1040069E+00
         21   -1    0    0  502  501  0.00000000000E+00  0.00000000000E+00  0.72138168757E+02  0.72138168757E+02  0.00000000000E+00 0.  1.
         21   -1    0    0  501  502 -0.00000000000E+00 -0.00000000000E+00 -0.58512989589E+03  0.58512989589E+03  0.00000000000E+00 0.  1.
      99925    2    1    2    0    0 -0.26727144231E+02 -0.43131829797E+02 -0.28330263743E+03  0.39084869409E+03  0.26443831476E+03 0.  0.
         25    1    3    3    0    0 -0.36456397555E+02  0.14674940663E+02 -0.13831274342E+03  0.19058422258E+03  0.12509000000E+03 0.  0.
         25    1    1    2    0    0  0.26727144231E+02  0.43131829797E+02 -0.22968908970E+03  0.26641937055E+03  0.12509000000E+03 0.  0.
         25    1    3    3    0    0  0.97292533244E+01 -0.57806770459E+02 -0.14498989401E+03  0.20026447151E+03  0.12509000000E+03 0.  0.
<mgrwt>
<rscale>  2 0.41090242E+03</rscale>
<asrwt>0</asrwt>
<pdfrwt beam="1">  1       21 0.10608554E-01 0.41090242E+03</pdfrwt>
<pdfrwt beam="2">  1       21 0.86048517E-01 0.41090242E+03</pdfrwt>
<totfact> 0.79519784E+04</totfact>
</mgrwt>
</event>
<event>
 6    0  0.1539497E-004  0.4841653E+03  0.7546771E-02  0.1017997E+00
         21   -1    0    0  502  501  0.00000000000E+00  0.00000000000E+00  0.38552843839E+03  0.38552843839E+03  0.00000000000E+00 0. -1.
         21   -1    0    0  501  502 -0.00000000000E+00 -0.00000000000E+00 -0.15200957408E+03  0.15200957408E+03  0.00000000000E+00 0. -1.
      99925    2    1    2    0    0 -0.33614627621E+02  0.74333773822E+02  0.18966921117E+02  0.27612742059E+03  0.26311813922E+03 0.  0.
         25    1    1    2    0    0  0.33614627621E+02 -0.74333773822E+02  0.21455194319E+03  0.26141059188E+03  0.12509000000E+03 0.  0.
         25    1    3    3    0    0 -0.40680886743E-01  0.74838884788E+02  0.49406337698E+01  0.14585190535E+03  0.12509000000E+03 0.  0.
         25    1    3    3    0    0 -0.33573946734E+02 -0.50511096569E+00  0.14026287347E+02  0.13027551525E+03  0.12509000000E+03 0.  0.
<mgrwt>
<rscale>  2 0.48416532E+03</rscale>
<asrwt>0</asrwt>
<pdfrwt beam="1">  1       21 0.56695359E-01 0.48416532E+03</pdfrwt>
<pdfrwt beam="2">  1       21 0.22354349E-01 0.48416532E+03</pdfrwt>
<totfact> 0.50077599E+04</totfact>
</mgrwt>
</event>
<event>
 6    0  0.1539497E-004  0.5482782E+03  0.7546771E-02  0.1001893E+00
         21   -1    0    0  502  501  0.00000000000E+00  0.00000000000E+00  0.46071884264E+03  0.46071884264E+03  0.00000000000E+00 0.  1.
         21   -1    0    0  501  502 -0.00000000000E+00 -0.00000000000E+00 -0.16311952392E+03  0.16311952392E+03  0.00000000000E+00 0.  1.
      99925    2    1    2    0    0  0.84292584529E+02  0.40489087715E+01 -0.15126497591E+02  0.27661138351E+03  0.26298937828E+03 0.  0.
         25    1    3    3    0    0  0.37093513454E+02  0.34389097301E+02  0.16436782830E+02  0.13592724040E+03  0.12509000000E+03 0.  0.
         25    1    1    2    0    0 -0.84292584529E+02 -0.40489087715E+01  0.31272581631E+03  0.34722698305E+03  0.12509000000E+03 0.  0.
         25    1    3    3    0    0  0.47199071075E+02 -0.30340188529E+02 -0.31563280421E+02  0.14068414311E+03  0.12509000000E+03 0.  0.
<mgrwt>
<rscale>  2 0.54827817E+03</rscale>
<asrwt>0</asrwt>
<pdfrwt beam="1">  1       21 0.67752771E-01 0.54827817E+03</pdfrwt>
<pdfrwt beam="2">  1       21 0.23988165E-01 0.54827817E+03</pdfrwt>
<totfact> 0.29085627E+04</totfact>
</mgrwt>
</event>
<event>
 6    0  0.1539497E-004  0.4181702E+03  0.7546771E-02  0.1037663E+00
         21   -1    0    0  502  501  0.00000000000E+00  0.00000000000E+00  0.19639855495E+02  0.19639855495E+02  0.00000000000E+00 0.  1.
         21   -1    0    0  501  502 -0.00000000000E+00 -0.00000000000E+00 -0.22259116401E+04  0.22259116401E+04  0.00000000000E+00 0.  1.
      99925    2    1    2    0    0 -0.24243082318E+02  0.29961196740E+02 -0.11047522936E+04  0.11362823229E+04  0.26301043087E+03 0.  0.
         25    1    3    3    0    0 -0.31041552759E+02  0.26133532265E+02 -0.41839089477E+03  0.43857153172E+03  0.12509000000E+03 0.  0.
         25    1    1    2    0    0  0.24243082318E+02 -0.29961196740E+02 -0.11015194910E+04  0.11092691727E+04  0.12509000000E+03 0.  0.
         25    1    3    3    0    0  0.67984704408E+01  0.38276644750E+01 -0.68636139883E+03  0.69771079117E+03  0.12509000000E+03 0.  0.
<mgrwt>
<rscale>  2 0.41817022E+03</rscale>
<asrwt>0</asrwt>
<pdfrwt beam="1">  1       21 0.28882155E-02 0.41817022E+03</pdfrwt>
<pdfrwt beam="2">  1       21 0.32733979E+00 0.41817022E+03</pdfrwt>
<totfact> 0.13591569E+04</totfact>
</mgrwt>
</event>
<event>
 6    0  0.1539497E-004  0.4499151E+03  0.7546771E-02  0.1027747E+00
         21   -1    0    0  502  501  0.00000000000E+00  0.00000000000E+00  0.16081021721E+04  0.16081021721E+04  0.00000000000E+00 0. -1.
         21   -1    0    0  501  502 -0.00000000000E+00 -0.00000000000E+00 -0.31469331128E+02  0.31469331128E+02  0.00000000000E+00 0. -1.
      99925    2    1    2    0    0  0.49831201220E+02 -0.60266662293E+02  0.12700531341E+04  0.12993453373E+04  0.26296030687E+03 0.  0.
         25    1    3    3    0    0  0.32642634600E+02  0.10305893163E+02  0.59727099024E+03  0.61118892080E+03  0.12509000000E+03 0.  0.
         25    1    1    2    0    0 -0.49831201220E+02  0.60266662293E+02  0.30657970686E+03  0.34022616590E+03  0.12509000000E+03 0.  0.
         25    1    3    3    0    0  0.17188566620E+02 -0.70572555456E+02  0.67278214383E+03  0.68815641649E+03  0.12509000000E+03 0.  0.
<mgrwt>
<rscale>  2 0.44991510E+03</rscale>
<asrwt>0</asrwt>
<pdfrwt beam="1">  1       21 0.23648556E+00 0.44991510E+03</pdfrwt>
<pdfrwt beam="2">  1       21 0.46278439E-02 0.44991510E+03</pdfrwt>
<totfact> 0.21381979E+04</totfact>
</mgrwt>
</event>
<event>
 5    0  0.1741874E-004  0.4058680E+03  0.7546771E-02  0.1041767E+00
         21   -1    0    0  502  501  0.00000000000E+00  0.00000000000E+00  0.55545066802E+02  0.55545066802E+02  0.00000000000E+00 0.  1.
         21   -1    0    0  501  502 -0.00000000000E+00 -0.00000000000E+00 -0.74141985811E+03  0.74141985811E+03  0.00000000000E+00 0.  1.
         25    1    1    2    0    0 -0.19114461751E+01 -0.33930730020E+01 -0.35239101826E+03  0.37395468231E+03  0.12509000000E+03 0.  0.
         25    1    1    2    0    0  0.27311418449E+02 -0.15801704427E+02 -0.19386977011E+03  0.23287035728E+03  0.12509000000E+03 0.  0.
         25    1    1    2    0    0 -0.25399972274E+02  0.19194777429E+02 -0.13961400294E+03  0.19013988532E+03  0.12509000000E+03 0.  0.
<mgrwt>
<rscale>  2 0.40586804E+03</rscale>
<asrwt>0</asrwt>
<pdfrwt beam="1">  1       21 0.81683928E-02 0.40586804E+03</pdfrwt>
<pdfrwt beam="2">  1       21 0.10903232E+00 0.40586804E+03</pdfrwt>
<totfact> 0.71867486E+04</totfact>
</mgrwt>
</event>
<event>
 6    0  0.1539497E-004  0.4068099E+03  0.7546771E-02  0.1041447E+00
         21   -1    0    0  502  501  0.00000000000E+00  0.00000000000E+00  0.11300856556E+04  0.11300856556E+04  0.00000000000E+00 0.  1.
         21   -1    0    0  501  502 -0.00000000000E+00 -0.00000000000E+00 -0.36611014087E+02  0.36611014087E+02  0.00000000000E+00 0.  1.
      99925    2    1    2    0    0  0.55321129940E+01 -0.56493565143E+02  0.70229224396E+03  0.75209649671E+03  0.26308290948E+03 0.  0.
         25    1    3    3    0    0  0.25212107912E+01 -0.36218098203E+02  0.46709728446E+03  0.48491802234E+03  0.12509000000E+03 0.  0.
         25    1    1    2    0    0 -0.55321129940E+01  0.56493565143E+02  0.39118239755E+03  0.41460017298E+03  0.12509000000E+03 0.  0.
         25    1    3    3    0    0  0.30109022027E+01 -0.20275466940E+02  0.23519495950E+03  0.26717847437E+03  0.12509000000E+03 0.  0.
<mgrwt>
<rscale>  2 0.40680994E+03</rscale>
<asrwt>0</asrwt>
<pdfrwt beam="1">  1       21 0.16618904E+00 0.40680994E+03</pdfrwt>
<pdfrwt beam="2">  1       21 0.53839734E-02 0.40680994E+03</pdfrwt>
<totfact> 0.49297442E+04</totfact>
</mgrwt>
</event>
<event>
 6    0  0.1539497E-004  0.4504326E+03  0.7546771E-02  0.1027593E+00
         21   -1    0    0  502  501  0.00000000000E+00  0.00000000000E+00  0.64510203253E+03  0.64510203253E+03  0.00000000000E+00 0. -1.
         21   -1    0    0  501  502 -0.00000000000E+00 -0.00000000000E+00 -0.78626913517E+02  0.78626913517E+02  0.00000000000E+00 0. -1.
      99925    2    1    2    0    0  0.98131779258E+02 -0.47076420698E+02  0.35448813639E+03  0.45459696284E+03  0.26296487273E+03 0.  0.
         25    1    3    3    0    0  0.80685751046E+02 -0.78137100313E+01  0.15325251488E+03  0.21378747836E+03  0.12509000000E+03 0.  0.
         25    1    1    2    0    0 -0.98131779258E+02  0.47076420698E+02  0.21198698262E+03  0.26913198321E+03  0.12509000000E+03 0.  0.
         25    1    3    3    0    0  0.17446028212E+02 -0.39262710666E+02  0.20123562151E+03  0.24080948448E+03  0.12509000000E+03 0.  0.
<mgrwt>
<rscale>  2 0.45043260E+03</rscale>
<asrwt>0</asrwt>
<pdfrwt beam="1">  1       21 0.94867943E-01 0.45043260E+03</pdfrwt>
<pdfrwt beam="2">  1       21 0.11562782E-01 0.45043260E+03</pdfrwt>
<totfact> 0.53530678E+04</totfact>
</mgrwt>
</event>
<event>
 6    0  0.1539497E-004  0.4042984E+03  0.7546771E-02  0.1042301E+00
         21   -1    0    0  502  501  0.00000000000E+00  0.00000000000E+00  0.12695415609E+04  0.12695415609E+04  0.00000000000E+00 0.  1.
         21   -1    0    0  501  502 -0.00000000000E+00 -0.00000000000E+00 -0.32188234730E+02  0.32188234730E+02  0.00000000000E+00 0.  1.
      99925    2    1    2    0    0 -0.53153704803E+02 -0.27683936662E+01  0.81391020492E+03  0.85700002896E+03  0.26299476727E+03 0.  0.
         25    1    3    3    0    0 -0.48346778163E+02  0.29029754541E+02  0.47069314809E+03  0.49028531017E+03  0.12509000000E+03 0.  0.
         25    1    1    2    0    0  0.53153704803E+02  0.27683936662E+01  0.42344312125E+03  0.44472976669E+03  0.12509000000E+03 0.  0.
         25    1    3    3    0    0 -0.48069266403E+01 -0.31798148207E+02  0.34321705683E+03  0.36671471879E+03  0.12509000000E+03 0.  0.
<mgrwt>
<rscale>  2 0.40429841E+03</rscale>
<asrwt>0</asrwt>
<pdfrwt beam="1">  1       21 0.18669726E+00 0.40429841E+03</pdfrwt>
<pdfrwt beam="2">  1       21 0.47335648E-02 0.40429841E+03</pdfrwt>
<totfact> 0.44035862E+04</totfact>
</mgrwt>
</event>
<event>
 6    0  0.1539497E-004  0.4542311E+03  0.7546771E-02  0.1026468E+00
         21   -1    0    0  502  501  0.00000000000E+00  0.00000000000E+00  0.29299774264E+03  0.29299774264E+03  0.00000000000E+00 0.  1.
         21   -1    0    0  501  502 -0.00000000000E+00 -0.00000000000E+00 -0.17604735005E+03  0.17604735005E+03  0.00000000000E+00 0.  1.
      99925    2    1    2    0    0 -0.68642340383E+02  0.78302920890E+02  0.29193453114E+02  0.28413455530E+03  0.26274906184E+03 0.  0.
         25    1    1    2    0    0  0.68642340383E+02 -0.78302920890E+02  0.87756939474E+02  0.18491053739E+03  0.12509000000E+03 0.  0.
         25    1    3    3    0    0 -0.78544656817E+01  0.33458542618E+02  0.44640665687E+02  0.13719134025E+03  0.12509000000E+03 0.  0.
         25    1    3    3    0    0 -0.60787874701E+02  0.44844378272E+02 -0.15447212573E+02  0.14694321505E+03  0.12509000000E+03 0.  0.
<mgrwt>
<rscale>  2 0.45423111E+03</rscale>
<asrwt>0</asrwt>
<pdfrwt beam="1">  1       21 0.43087903E-01 0.45423111E+03</pdfrwt>
<pdfrwt beam="2">  1       21 0.25889316E-01 0.45423111E+03</pdfrwt>
<totfact> 0.67920145E+04</totfact>
</mgrwt>
</event>
<event>
 6    0  0.1539497E-004  0.4101734E+03  0.7546771E-02  0.1040313E+00
         21   -1    0    0  502  501  0.00000000000E+00  0.00000000000E+00  0.45021200132E+02  0.45021200132E+02  0.00000000000E+00 0. -1.
         21   -1    0    0  501  502 -0.00000000000E+00 -0.00000000000E+00 -0.93423871409E+03  0.93423871409E+03  0.00000000000E+00 0. -1.
      99925    2    1    2    0    0  0.35908713275E+02 -0.37414133666E+02 -0.66160257729E+03  0.71441029541E+03  0.26452759182E+03 0.  0.
         25    1    3    3    0    0  0.15475015879E+02 -0.34026514835E+02 -0.44150393199E+03  0.46040255201E+03  0.12509000000E+03 0.  0.
         25    1    1    2    0    0 -0.35908713275E+02  0.37414133666E+02 -0.22761493668E+03  0.26484961881E+03  0.12509000000E+03 0.  0.
         25    1    3    3    0    0  0.20433697397E+02 -0.33876188313E+01 -0.22009864529E+03  0.25400774341E+03  0.12509000000E+03 0.  0.
<mgrwt>
<rscale>  2 0.41017337E+03</rscale>
<asrwt>0</asrwt>
<pdfrwt beam="1">  1       21 0.66207646E-02 0.41017337E+03</pdfrwt>
<pdfrwt beam="2">  1       21 0.13738805E+00 0.41017337E+03</pdfrwt>
<totfact> 0.57688875E+04</totfact>
</mgrwt>
</event>
<event>
 6    0  0.1539497E-004  0.4105048E+03  0.7546771E-02  0.1040202E+00
         21   -1    0    0  502  501  0.00000000000E+00  0.00000000000E+00  0.44207278634E+02  0.44207278634E+02  0.00000000000E+00 0.  1.
         21   -1    0    0  501  502 -0.00000000000E+00 -0.00000000000E+00 -0.95297760660E+03  0.95297760660E+03  0.00000000000E+00 0.  1.
      99925    2    1    2    0    0  0.12257185263E+02 -0.25963147314E+02 -0.73477623943E+03  0.78097717364E+03  0.26306824229E+03 0.  0.
         25    1    3    3    0    0  0.31412483883E+02  0.11452361016E+02 -0.30357924337E+03  0.33003903682E+03  0.12509000000E+03 0.  0.
         25    1    1    2    0    0 -0.12257185263E+02  0.25963147314E+02 -0.17399408853E+03  0.21620771160E+03  0.12509000000E+03 0.  0.
         25    1    3    3    0    0 -0.19155298620E+02 -0.37415508330E+02 -0.43119699606E+03  0.45093813682E+03  0.12509000000E+03 0.  0.
<mgrwt>
<rscale>  2 0.41050479E+03</rscale>
<asrwt>0</asrwt>
<pdfrwt beam="1">  1       21 0.65010707E-02 0.41050479E+03</pdfrwt>
<pdfrwt beam="2">  1       21 0.14014376E+00 0.41050479E+03</pdfrwt>
<totfact> 0.56503425E+04</totfact>
</mgrwt>
</event>
<event>
 6    0  0.1539497E-004  0.3991107E+03  0.7546771E-02  0.1044088E+00
         21   -1    0    0  502  501  0.00000000000E+00  0.00000000000E+00  0.21922267169E+02  0.21922267169E+02  0.00000000000E+00 0.  1.
         21   -1    0    0  501  502 -0.00000000000E+00 -0.00000000000E+00 -0.18165243199E+04  0.18165243199E+04  0.00000000000E+00 0.  1.
      99925    2    1    2    0    0  0.38344292765E+02 -0.79102600344E+01 -0.12772769319E+04  0.13047747349E+04  0.26356762168E+03 0.  0.
         25    1    3    3    0    0 -0.57059688675E+01 -0.20529722461E+02 -0.48230841309E+03  0.49872130596E+03  0.12509000000E+03 0.  0.
         25    1    1    2    0    0 -0.38344292765E+02  0.79102600344E+01 -0.51732512086E+03  0.53367185215E+03  0.12509000000E+03 0.  0.
         25    1    3    3    0    0  0.44050261633E+02  0.12619462427E+02 -0.79496851877E+03  0.80605342894E+03  0.12509000000E+03 0.  0.
<mgrwt>
<rscale>  2 0.39911067E+03</rscale>
<asrwt>0</asrwt>
<pdfrwt beam="1">  1       21 0.32238625E-02 0.39911067E+03</pdfrwt>
<pdfrwt beam="2">  1       21 0.26713596E+00 0.39911067E+03</pdfrwt>
<totfact> 0.26183401E+04</totfact>
</mgrwt>
</event>
<event>
 6    0  0.1539497E-004  0.5133020E+03  0.7546771E-02  0.1010364E+00
         21   -1    0    0  502  501  0.00000000000E+00  0.00000000000E+00  0.42119509902E+02  0.42119509902E+02  0.00000000000E+00 0. -1.
         21   -1    0    0  501  502 -0.00000000000E+00 -0.00000000000E+00 -0.15638771200E+04  0.15638771200E+04  0.00000000000E+00 0. -1.
      99925    2    1    2    0    0  0.82768333357E+02  0.99304119545E+01 -0.13493208521E+04  0.13772365947E+04  0.26299176006E+03 0.  0.
         25    1    1    2    0    0 -0.82768333357E+02 -0.99304119545E+01 -0.17243675804E+03  0.22876003521E+03  0.12509000000E+03 0.  0.
         25    1    3    3    0    0  0.73550182557E+02  0.15878755631E+02 -0.60244465048E+03  0.61987807610E+03  0.12509000000E+03 0.  0.
         25    1    3    3    0    0  0.92181507993E+01 -0.59483436761E+01 -0.74687620160E+03  0.75735851861E+03  0.12509000000E+03 0.  0.
<mgrwt>
<rscale>  2 0.51330201E+03</rscale>
<asrwt>0</asrwt>
<pdfrwt beam="1">  1       21 0.61940454E-02 0.51330201E+03</pdfrwt>
<pdfrwt beam="2">  1       21 0.22998194E+00 0.51330201E+03</pdfrwt>
<totfact> 0.13874533E+04</totfact>
</mgrwt>
</event>
<event>
 6    0  0.1539497E-004  0.4424737E+03  0.7546771E-02  0.1029991E+00
         21   -1    0    0  502  501  0.00000000000E+00  0.00000000000E+00  0.16954408386E+03  0.16954408386E+03  0.00000000000E+00 0. -1.
         21   -1    0    0  501  502 -0.00000000000E+00 -0.00000000000E+00 -0.28869039727E+03  0.28869039727E+03  0.00000000000E+00 0. -1.
      99925    2    1    2    0    0 -0.87331729783E+02 -0.19428146790E+02 -0.12449064612E+03  0.30435025872E+03  0.26291990244E+03 0.  0.
         25    1    1    2    0    0  0.87331729783E+02  0.19428146790E+02  0.53443327040E+01  0.15388422241E+03  0.12509000000E+03 0.  0.
         25    1    3    3    0    0 -0.47256429871E+02  0.21298941527E+02 -0.33612890005E+02  0.13951397618E+03  0.12509000000E+03 0.  0.
         25    1    3    3    0    0 -0.40075299912E+02 -0.40727088316E+02 -0.90877756115E+02  0.16483628254E+03  0.12509000000E+03 0.  0.
<mgrwt>
<rscale>  2 0.44247372E+03</rscale>
<asrwt>0</asrwt>
<pdfrwt beam="1">  1       21 0.24932954E-01 0.44247372E+03</pdfrwt>
<pdfrwt beam="2">  1       21 0.42454469E-01 0.44247372E+03</pdfrwt>
<totfact> 0.75553776E+04</totfact>
</mgrwt>
</event>
<event>
 6    0  0.1539497E-004  0.4532787E+03  0.7546771E-02  0.1026749E+00
         21   -1    0    0  502  501  0.00000000000E+00  0.00000000000E+00  0.53826221421E+03  0.53826221421E+03  0.00000000000E+00 0.  1.
         21   -1    0    0  501  502 -0.00000000000E+00 -0.00000000000E+00 -0.95428184063E+02  0.95428184063E+02  0.00000000000E+00 0.  1.
      99925    2    1    2    0    0 -0.92783716114E+02  0.49035345169E+02  0.22620049406E+03  0.36241400765E+03  0.26299043020E+03 0.  0.
         25    1    3    3    0    0 -0.33346496881E+02 -0.15368179717E+02  0.10766223431E+03  0.16907641645E+03  0.12509000000E+03 0.  0.
         25    1    1    2    0    0  0.92783716114E+02 -0.49035345169E+02  0.21663353609E+03  0.27127639062E+03  0.12509000000E+03 0.  0.
         25    1    3    3    0    0 -0.59437219233E+02  0.64403524887E+02  0.11853825976E+03  0.19333759121E+03  0.12509000000E+03 0.  0.
<mgrwt>
<rscale>  2 0.45327866E+03</rscale>
<asrwt>0</asrwt>
<pdfrwt beam="1">  1       21 0.79156207E-01 0.45327866E+03</pdfrwt>
<pdfrwt beam="2">  1       21 0.14033557E-01 0.45327866E+03</pdfrwt>
<totfact> 0.57427281E+04</totfact>
</mgrwt>
</event>
<event>
 6    0  0.1539497E-004  0.4508726E+03  0.7546771E-02  0.1027462E+00
         21   -1    0    0  502  501  0.00000000000E+00  0.00000000000E+00  0.91757134394E+02  0.91757134394E+02  0.00000000000E+00 0.  1.
         21   -1    0    0  501  502 -0.00000000000E+00 -0.00000000000E+00 -0.55387000531E+03  0.55387000531E+03  0.00000000000E+00 0.  1.
      99925    2    1    2    0    0 -0.10686597327E+03  0.78238787067E+01 -0.32036510586E+03  0.42832208611E+03  0.26333336111E+03 0.  0.
         25    1    3    3    0    0 -0.22475775079E+02 -0.15273564610E+02 -0.18050340751E+03  0.22128585690E+03  0.12509000000E+03 0.  0.
         25    1    3    3    0    0 -0.84390198189E+02  0.23097443317E+02 -0.13986169835E+03  0.20703622921E+03  0.12509000000E+03 0.  0.
         25    1    1    2    0    0  0.10686597327E+03 -0.78238787067E+01 -0.14174776505E+03  0.21730505360E+03  0.12509000000E+03 0.  0.
<mgrwt>
<rscale>  2 0.45087260E+03</rscale>
<asrwt>0</asrwt>
<pdfrwt beam="1">  1       21 0.13493697E-01 0.45087260E+03</pdfrwt>
<pdfrwt beam="2">  1       21 0.81451469E-01 0.45087260E+03</pdfrwt>
<totfact> 0.57813917E+04</totfact>
</mgrwt>
</event>
<event>
 6    0  0.1539497E-004  0.3942438E+03  0.7546771E-02  0.1045791E+00
         21   -1    0    0  502  501  0.00000000000E+00  0.00000000000E+00  0.20064472427E+04  0.20064472427E+04  0.00000000000E+00 0. -1.
         21   -1    0    0  501  502 -0.00000000000E+00 -0.00000000000E+00 -0.19366091573E+02  0.19366091573E+02  0.00000000000E+00 0. -1.
      99925    2    1    2    0    0  0.17833811625E+02  0.27019689076E+02  0.13175819867E+04  0.13439594293E+04  0.26297632505E+03 0.  0.
         25    1    1    2    0    0 -0.17833811625E+02 -0.27019689076E+02  0.66949916442E+03  0.68185390495E+03  0.12509000000E+03 0.  0.
         25    1    3    3    0    0  0.70660225346E+01  0.51942744653E+02  0.61046222371E+03  0.62534759300E+03  0.12509000000E+03 0.  0.
         25    1    3    3    0    0  0.10767789091E+02 -0.24923055577E+02  0.70711976298E+03  0.71861183630E+03  0.12509000000E+03 0.  0.
<mgrwt>
<rscale>  2 0.39424379E+03</rscale>
<asrwt>0</asrwt>
<pdfrwt beam="1">  1       21 0.29506563E+00 0.39424379E+03</pdfrwt>
<pdfrwt beam="2">  1       21 0.28479560E-02 0.39424379E+03</pdfrwt>
<totfact> 0.21979926E+04</totfact>
</mgrwt>
</event>
<event>
 6    0  0.1539497E-004  0.4160841E+03  0.7546771E-02  0.1038348E+00
         21   -1    0    0  502  501  0.00000000000E+00  0.00000000000E+00  0.28964780760E+03  0.28964780760E+03  0.00000000000E+00 0.  1.
         21   -1    0    0  501  502 -0.00000000000E+00 -0.00000000000E+00 -0.14942797092E+03  0.14942797092E+03  0.00000000000E+00 0.  1.
      99925    2    1    2    0    0 -0.34810163565E+02 -0.26634380649E+02  0.15046122841E+03  0.30613394190E+03  0.26297960264E+03 0.  0.
         25    1    3    3    0    0 -0.54720829204E+02 -0.29539410807E+02  0.85034699756E+02  0.16354006910E+03  0.12509000000E+03 0.  0.
         25    1    3    3    0    0  0.19910665639E+02  0.29050301578E+01  0.65426528656E+02  0.14259387279E+03  0.12509000000E+03 0.  0.
         25    1    1    2    0    0  0.34810163565E+02  0.26634380649E+02 -0.10241391731E+02  0.13294183662E+03  0.12509000000E+03 0.  0.
<mgrwt>
<rscale>  2 0.41608405E+03</rscale>
<asrwt>0</asrwt>
<pdfrwt beam="1">  1       21 0.42595266E-01 0.41608405E+03</pdfrwt>
<pdfrwt beam="2">  1       21 0.21974702E-01 0.41608405E+03</pdfrwt>
<totfact> 0.96268306E+04</totfact>
</mgrwt>
</event>
<event>
 6    0  0.1539497E-004  0.4545099E+03  0.7546771E-02  0.1026386E+00
         21   -1    0    0  502  501  0.00000000000E+00  0.00000000000E+00  0.27843410525E+03  0.27843410525E+03  0.00000000000E+00 0.  1.
         21   -1    0    0  501  502 -0.00000000000E+00 -0.00000000000E+00 -0.18548307784E+03  0.18548307784E+03  0.00000000000E+00 0.  1.
      99925    2    1    2    0    0 -0.96607274741E+02 -0.57887022710E+02  0.57829887324E+02  0.29197278652E+03  0.26309682489E+03 0.  0.
         25    1    3    3    0    0 -0.90847142277E+02 -0.25922593409E+02  0.37040372651E+02  0.16107352798E+03  0.12509000000E+03 0.  0.
         25    1    1    2    0    0  0.96607274741E+02  0.57887022710E+02  0.35121140079E+02  0.17194439657E+03  0.12509000000E+03 0.  0.
         25    1    3    3    0    0 -0.57601324640E+01 -0.31964429301E+02  0.20789514673E+02  0.13089925854E+03  0.12509000000E+03 0.  0.
<mgrwt>
<rscale>  2 0.45450991E+03</rscale>
<asrwt>0</asrwt>
<pdfrwt beam="1">  1       21 0.40946192E-01 0.45450991E+03</pdfrwt>
<pdfrwt beam="2">  1       21 0.27276923E-01 0.45450991E+03</pdfrwt>
<totfact> 0.68155857E+04</totfact>
</mgrwt>
</event>
<event>
 6    0  0.1539497E-004  0.4636821E+03  0.7546771E-02  0.1023719E+00
         21   -1    0    0  502  501  0.00000000000E+00  0.00000000000E+00  0.15179270666E+03  0.15179270666E+03  0.00000000000E+00 0.  1.
         21   -1    0    0  501  502 -0.00000000000E+00 -0.00000000000E+00 -0.35410316971E+03  0.35410316971E+03  0.00000000000E+00 0.  1.
      99925    2    1    2    0    0 -0.11407779622E+02 -0.55019735512E+01  0.50683317733E+01  0.26338014124E+03  0.26302661778E+03 0.  0.
         25    1    3    3    0    0  0.19872144276E+02 -0.23410327626E+02 -0.21310934306E+02  0.13055500595E+03  0.12509000000E+03 0.  0.
         25    1    3    3    0    0 -0.31279923898E+02  0.17908354075E+02  0.26379266079E+02  0.13282513529E+03  0.12509000000E+03 0.  0.
         25    1    1    2    0    0  0.11407779622E+02  0.55019735512E+01 -0.20737879482E+03  0.24251573514E+03  0.12509000000E+03 0.  0.
<mgrwt>
<rscale>  2 0.46368213E+03</rscale>
<asrwt>0</asrwt>
<pdfrwt beam="1">  1       21 0.22322457E-01 0.46368213E+03</pdfrwt>
<pdfrwt beam="2">  1       21 0.52073996E-01 0.46368213E+03</pdfrwt>
<totfact> 0.60574841E+04</totfact>
</mgrwt>
</event>
<event>
 6    0  0.1539497E-004  0.4027621E+03  0.7546771E-02  0.1042827E+00
         21   -1    0    0  502  501  0.00000000000E+00  0.00000000000E+00  0.11855831338E+03  0.11855831338E+03  0.00000000000E+00 0. -1.
         21   -1    0    0  501  502 -0.00000000000E+00 -0.00000000000E+00 -0.34206223837E+03  0.34206223837E+03  0.00000000000E+00 0. -1.
      99925    2    1    2    0    0 -0.35145484325E+02 -0.30574569313E+02 -0.12963965228E+03  0.29743961184E+03  0.26361690744E+03 0.  0.
         25    1    3    3    0    0 -0.32853798695E+02 -0.40927434940E+02 -0.34637691526E+02  0.14000608842E+03  0.12509000000E+03 0.  0.
         25    1    3    3    0    0 -0.22916856300E+01  0.10352865627E+02 -0.95001960758E+02  0.15743352342E+03  0.12509000000E+03 0.  0.
         25    1    1    2    0    0  0.35145484325E+02  0.30574569313E+02 -0.93864272712E+02  0.16318093991E+03  0.12509000000E+03 0.  0.
<mgrwt>
<rscale>  2 0.40276207E+03</rscale>
<asrwt>0</asrwt>
<pdfrwt beam="1">  1       21 0.17435046E-01 0.40276207E+03</pdfrwt>
<pdfrwt beam="2">  1       21 0.50303271E-01 0.40276207E+03</pdfrwt>
<totfact> 0.10557199E+05</totfact>
</mgrwt>
</event>
<event>
 6    0  0.2153645E-004  0.4137441E+03  0.7546771E-02  0.1039122E+00
         21   -1    0    0  502  501  0.00000000000E+00  0.00000000000E+00  0.25275426657E+03  0.25275426657E+03  0.00000000000E+00 0.  1.
         21   -1    0    0  501  502 -0.00000000000E+00 -0.00000000000E+00 -0.16931875426E+03  0.16931875426E+03  0.00000000000E+00 0.  1.
      99925    2    1    2    0    0  0.32226574348E+02  0.39813708788E+02  0.11066366521E+02  0.26874825158E+03  0.26358959532E+03 0.  0.
         25    1    3    3    0    0 -0.24958688986E+02  0.22417814820E+02  0.12416389215E+02  0.13010445572E+03  0.12509000000E+03 0.  0.
         25    1    1    2    0    0 -0.32226574348E+02 -0.39813708788E+02  0.72369145786E+02  0.15332476924E+03  0.12509000000E+03 0.  0.
         25    1    3    3    0    0  0.57185263335E+02  0.17395893968E+02 -0.13500226932E+01  0.13864379586E+03  0.12509000000E+03 0.  0.
<mgrwt>
<rscale>  2 0.41374406E+03</rscale>
<asrwt>0</asrwt>
<pdfrwt beam="1">  1       21 0.37169745E-01 0.41374406E+03</pdfrwt>
<pdfrwt beam="2">  1       21 0.24899817E-01 0.41374406E+03</pdfrwt>
<totfact> 0.10013154E+05</totfact>
</mgrwt>
</event>
<event>
 6    0  0.1539497E-004  0.3909558E+03  0.7546771E-02  0.1046957E+00
         21   -1    0    0  502  501  0.00000000000E+00  0.00000000000E+00  0.30157040304E+02  0.30157040304E+02  0.00000000000E+00 0.  1.
         21   -1    0    0  501  502 -0.00000000000E+00 -0.00000000000E+00 -0.12670877467E+04  0.12670877467E+04  0.00000000000E+00 0.  1.
      99925    2    1    2    0    0 -0.14034407246E+02 -0.16311285870E+02 -0.85690767815E+03  0.89658528976E+03  0.26289045306E+03 0.  0.
         25    1    1    2    0    0  0.14034407246E+02  0.16311285870E+02 -0.38002302826E+03  0.40065949726E+03  0.12509000000E+03 0.  0.
         25    1    3    3    0    0  0.25109444239E+02 -0.29068900949E+02 -0.38396841884E+03  0.40565347276E+03  0.12509000000E+03 0.  0.
         25    1    3    3    0    0 -0.39143851486E+02  0.12757615079E+02 -0.47293925931E+03  0.49093181700E+03  0.12509000000E+03 0.  0.
<mgrwt>
<rscale>  2 0.39095584E+03</rscale>
<asrwt>0</asrwt>
<pdfrwt beam="1">  1       21 0.44348585E-02 0.39095584E+03</pdfrwt>
<pdfrwt beam="2">  1       21 0.18633645E+00 0.39095584E+03</pdfrwt>
<totfact> 0.49734959E+04</totfact>
</mgrwt>
</event>
<event>
 6    0  0.1539497E-004  0.4280516E+03  0.7546771E-02  0.1034477E+00
         21   -1    0    0  502  501  0.00000000000E+00  0.00000000000E+00  0.11206823593E+03  0.11206823593E+03  0.00000000000E+00 0.  1.
         21   -1    0    0  501  502 -0.00000000000E+00 -0.00000000000E+00 -0.40874236277E+03  0.40874236277E+03  0.00000000000E+00 0.  1.
      99925    2    1    2    0    0  0.60075713851E+02 -0.60564948646E+02 -0.19203067598E+03  0.33675907247E+03  0.26316095450E+03 0.  0.
         25    1    1    2    0    0 -0.60075713851E+02  0.60564948646E+02 -0.10464345086E+03  0.18405152623E+03  0.12509000000E+03 0.  0.
         25    1    3    3    0    0  0.12831118182E+02 -0.88265421171E+01 -0.12828072048E+03  0.17984992851E+03  0.12509000000E+03 0.  0.
         25    1    3    3    0    0  0.47244595669E+02 -0.51738406529E+02 -0.63749955507E+02  0.15690914396E+03  0.12509000000E+03 0.  0.
<mgrwt>
<rscale>  2 0.42805156E+03</rscale>
<asrwt>0</asrwt>
<pdfrwt beam="1">  1       21 0.16480623E-01 0.42805156E+03</pdfrwt>
<pdfrwt beam="2">  1       21 0.60109171E-01 0.42805156E+03</pdfrwt>
<totfact> 0.79488183E+04</totfact>
</mgrwt>
</event>
<event>
 6    0  0.1539497E-004  0.4198815E+03  0.7546771E-02  0.1037105E+00
         21   -1    0    0  502  501  0.00000000000E+00  0.00000000000E+00  0.72890754059E+03  0.72890754059E+03  0.00000000000E+00 0.  1.
         21   -1    0    0  501  502 -0.00000000000E+00 -0.00000000000E+00 -0.60467351880E+02  0.60467351880E+02  0.00000000000E+00 0.  1.
      99925    2    1    2    0    0  0.53606203703E+02  0.53581707375E+02  0.43880078340E+03  0.51711327378E+03  0.26289805242E+03 0.  0.
         25    1    1    2    0    0 -0.53606203703E+02 -0.53581707375E+02  0.22963940532E+03  0.27226161870E+03  0.12509000000E+03 0.  0.
         25    1    3    3    0    0 -0.91016116742E+01  0.21488955315E+02  0.16964673038E+03  0.21206634755E+03  0.12509000000E+03 0.  0.
         25    1    3    3    0    0  0.62707815378E+02  0.32092752060E+02  0.26915405302E+03  0.30504692623E+03  0.12509000000E+03 0.  0.
<mgrwt>
<rscale>  2 0.41988145E+03</rscale>
<asrwt>0</asrwt>
<pdfrwt beam="1">  1       21 0.10719228E+00 0.41988145E+03</pdfrwt>
<pdfrwt beam="2">  1       21 0.88922580E-02 0.41988145E+03</pdfrwt>
<totfact> 0.64244242E+04</totfact>
</mgrwt>
</event>
<event>
 6    0  0.1539497E-004  0.3884748E+03  0.7546771E-02  0.1047845E+00
         21   -1    0    0  502  501  0.00000000000E+00  0.00000000000E+00  0.29701652792E+03  0.29701652792E+03  0.00000000000E+00 0. -1.
         21   -1    0    0  501  502 -0.00000000000E+00 -0.00000000000E+00 -0.12702382678E+03  0.12702382678E+03  0.00000000000E+00 0. -1.
      99925    2    1    2    0    0 -0.19718316296E+01  0.15870999809E+01  0.11939364930E+03  0.28908043786E+03  0.26326080045E+03 0.  0.
         25    1    1    2    0    0  0.19718316296E+01 -0.15870999809E+01  0.50599051842E+02  0.13495991684E+03  0.12509000000E+03 0.  0.
         25    1    3    3    0    0 -0.20334109356E+02 -0.30377621098E+02  0.39638388867E+02  0.13621668708E+03  0.12509000000E+03 0.  0.
         25    1    3    3    0    0  0.18362277727E+02  0.31964721079E+02  0.79755260432E+02  0.15286375078E+03  0.12509000000E+03 0.  0.
<mgrwt>
<rscale>  2 0.38847484E+03</rscale>
<asrwt>0</asrwt>
<pdfrwt beam="1">  1       21 0.43678901E-01 0.38847484E+03</pdfrwt>
<pdfrwt beam="2">  1       21 0.18679975E-01 0.38847484E+03</pdfrwt>
<totfact> 0.12513446E+05</totfact>
</mgrwt>
</event>
<event>
 6    0  0.1539497E-004  0.4054089E+03  0.7546771E-02  0.1041923E+00
         21   -1    0    0  502  501  0.00000000000E+00  0.00000000000E+00  0.13919074016E+03  0.13919074016E+03  0.00000000000E+00 0. -1.
         21   -1    0    0  501  502 -0.00000000000E+00 -0.00000000000E+00 -0.29519985958E+03  0.29519985958E+03  0.00000000000E+00 0. -1.
      99925    2    1    2    0    0  0.11134228306E+02  0.15855786724E+02 -0.47924255365E+02  0.26794173987E+03  0.26290809173E+03 0.  0.
         25    1    3    3    0    0 -0.28969183440E+02 -0.71758842825E+01 -0.38517313416E+02  0.13424529205E+03  0.12509000000E+03 0.  0.
         25    1    1    2    0    0 -0.11134228306E+02 -0.15855786724E+02 -0.10808486406E+03  0.16644885987E+03  0.12509000000E+03 0.  0.
         25    1    3    3    0    0  0.40103411746E+02  0.23031671006E+02 -0.94069419490E+01  0.13369644782E+03  0.12509000000E+03 0.  0.
<mgrwt>
<rscale>  2 0.40540886E+03</rscale>
<asrwt>0</asrwt>
<pdfrwt beam="1">  1       21 0.20469227E-01 0.40540886E+03</pdfrwt>
<pdfrwt beam="2">  1       21 0.43411744E-01 0.40540886E+03</pdfrwt>
<totfact> 0.10621205E+05</totfact>
</mgrwt>
</event>
<event>
 6    0  0.1539497E-004  0.4172755E+03  0.7546771E-02  0.1037957E+00
         21   -1    0    0  502  501  0.00000000000E+00  0.00000000000E+00  0.21195189932E+03  0.21195189932E+03  0.00000000000E+00 0. -1.
         21   -1    0    0  501  502 -0.00000000000E+00 -0.00000000000E+00 -0.20537542139E+03  0.20537542139E+03  0.00000000000E+00 0. -1.
      99925    2    1    2    0    0 -0.49167949285E+02 -0.34825748056E+02  0.44205432597E+02  0.27347404027E+03  0.26306579114E+03 0.  0.
         25    1    1    2    0    0  0.49167949285E+02  0.34825748056E+02 -0.37628954667E+02  0.14385328044E+03  0.12509000000E+03 0.  0.
         25    1    3    3    0    0  0.31197038731E+00 -0.35981580177E+02  0.48435032337E+02  0.13888207910E+03  0.12509000000E+03 0.  0.
         25    1    3    3    0    0 -0.49479919672E+02  0.11558321210E+01 -0.42295997407E+01  0.13459196117E+03  0.12509000000E+03 0.  0.
<mgrwt>
<rscale>  2 0.41727550E+03</rscale>
<asrwt>0</asrwt>
<pdfrwt beam="1">  1       21 0.31169397E-01 0.41727550E+03</pdfrwt>
<pdfrwt beam="2">  1       21 0.30202268E-01 0.41727550E+03</pdfrwt>
<totfact> 0.97642612E+04</totfact>
</mgrwt>
</event>
<event>
 6    0  0.1539497E-004  0.4703020E+03  0.7546771E-02  0.1021835E+00
         21   -1    0    0  502  501  0.00000000000E+00  0.00000000000E+00  0.19240521884E+03  0.19240521884E+03  0.00000000000E+00 0. -1.
         21   -1    0    0  501  502 -0.00000000000E+00 -0.00000000000E+00 -0.28739346297E+03  0.28739346297E+03  0.00000000000E+00 0. -1.
      99925    2    1    2    0    0  0.58561858964E+02  0.33146970125E+02  0.50905716699E+02  0.27617950575E+03  0.26297436083E+03 0.  0.
         25    1    1    2    0    0 -0.58561858964E+02 -0.33146970125E+02 -0.14589396082E+03  0.20361917606E+03  0.12509000000E+03 0.  0.
         25    1    3    3    0    0  0.36503982884E+02 -0.12633756587E+02 -0.26040622282E+01  0.13094442261E+03  0.12509000000E+03 0.  0.
         25    1    3    3    0    0  0.22057876080E+02  0.45780726712E+02  0.53509778928E+02  0.14523508315E+03  0.12509000000E+03 0.  0.
<mgrwt>
<rscale>  2 0.47030204E+03</rscale>
<asrwt>0</asrwt>
<pdfrwt beam="1">  1       21 0.28294885E-01 0.47030204E+03</pdfrwt>
<pdfrwt beam="2">  1       21 0.42263744E-01 0.47030204E+03</pdfrwt>
<totfact> 0.59191350E+04</totfact>
</mgrwt>
</event>
<event>
 6    0  0.1539497E-004  0.4101860E+03  0.7546771E-02  0.1040309E+00
         21   -1    0    0  502  501  0.00000000000E+00  0.00000000000E+00  0.16993751836E+04  0.16993751836E+04  0.00000000000E+00 0. -1.
         21   -1    0    0  501  502 -0.00000000000E+00 -0.00000000000E+00 -0.24752125402E+02  0.24752125402E+02  0.00000000000E+00 0. -1.
      99925    2    1    2    0    0  0.52170043326E+02 -0.21917621091E+02  0.99152349025E+03  0.10273672188E+04  0.26298759460E+03 0.  0.
         25    1    3    3    0    0  0.28955694094E+02  0.29531929800E+02  0.49214651175E+03  0.50947646092E+03  0.12509000000E+03 0.  0.
         25    1    1    2    0    0 -0.52170043326E+02  0.21917621091E+02  0.68309956797E+03  0.69676009027E+03  0.12509000000E+03 0.  0.
         25    1    3    3    0    0  0.23214349231E+02 -0.51449550892E+02  0.49937697850E+03  0.51789075784E+03  0.12509000000E+03 0.  0.
<mgrwt>
<rscale>  2 0.41018604E+03</rscale>
<asrwt>0</asrwt>
<pdfrwt beam="1">  1       21 0.24990804E+00 0.41018604E+03</pdfrwt>
<pdfrwt beam="2">  1       21 0.36400196E-02 0.41018604E+03</pdfrwt>
<totfact> 0.27006296E+04</totfact>
</mgrwt>
</event>
<event>
 6    0  0.1539497E-004  0.4585818E+03  0.7546771E-02  0.1025193E+00
         21   -1    0    0  502  501  0.00000000000E+00  0.00000000000E+00  0.31807128836E+03  0.31807128836E+03  0.00000000000E+00 0. -1.
         21   -1    0    0  501  502 -0.00000000000E+00 -0.00000000000E+00 -0.16529097338E+03  0.16529097338E+03  0.00000000000E+00 0. -1.
      99925    2    1    2    0    0  0.75786551481E+02 -0.44479909903E+02  0.17656810337E+03  0.32865146462E+03  0.26289432534E+03 0.  0.
         25    1    1    2    0    0 -0.75786551481E+02  0.44479909903E+02 -0.23787788390E+02  0.15471079712E+03  0.12509000000E+03 0.  0.
         25    1    3    3    0    0  0.40347830534E+02 -0.37740022425E+02  0.13457215201E+03  0.19185783517E+03  0.12509000000E+03 0.  0.
         25    1    3    3    0    0  0.35438720947E+02 -0.67398874779E+01  0.41995951359E+02  0.13679362944E+03  0.12509000000E+03 0.  0.
<mgrwt>
<rscale>  2 0.45858178E+03</rscale>
<asrwt>0</asrwt>
<pdfrwt beam="1">  1       21 0.46775190E-01 0.45858178E+03</pdfrwt>
<pdfrwt beam="2">  1       21 0.24307496E-01 0.45858178E+03</pdfrwt>
<totfact> 0.64599872E+04</totfact>
</mgrwt>
</event>
<event>
 6    0  0.1539497E-004  0.4445697E+03  0.7546771E-02  0.1029354E+00
         21   -1    0    0  502  501  0.00000000000E+00  0.00000000000E+00  0.32288653761E+02  0.32288653761E+02  0.00000000000E+00 0.  1.
         21   -1    0    0  501  502 -0.00000000000E+00 -0.00000000000E+00 -0.15302758736E+04  0.15302758736E+04  0.00000000000E+00 0.  1.
      99925    2    1    2    0    0  0.19402598903E+02 -0.57888224189E+02 -0.12437815942E+04  0.12727447289E+04  0.26298095684E+03 0.  0.
         25    1    1    2    0    0 -0.19402598903E+02  0.57888224189E+02 -0.25420562564E+03  0.28981979841E+03  0.12509000000E+03 0.  0.
         25    1    3    3    0    0  0.35441946854E+02 -0.60709112297E+02 -0.69364600837E+03  0.70833185792E+03  0.12509000000E+03 0.  0.
         25    1    3    3    0    0 -0.16039347951E+02  0.28208881080E+01 -0.55013558582E+03  0.56441287102E+03  0.12509000000E+03 0.  0.
<mgrwt>
<rscale>  2 0.44456967E+03</rscale>
<asrwt>0</asrwt>
<pdfrwt beam="1">  1       21 0.47483313E-02 0.44456967E+03</pdfrwt>
<pdfrwt beam="2">  1       21 0.22504058E+00 0.44456967E+03</pdfrwt>
<totfact> 0.24187385E+04</totfact>
</mgrwt>
</event>
<event>
 6    0  0.1539497E-004  0.4483692E+03  0.7546771E-02  0.1028209E+00
         21   -1    0    0  502  501  0.00000000000E+00  0.00000000000E+00  0.12782158052E+04  0.12782158052E+04  0.00000000000E+00 0.  1.
         21   -1    0    0  501  502 -0.00000000000E+00 -0.00000000000E+00 -0.39319438340E+02  0.39319438340E+02  0.00000000000E+00 0.  1.
      99925    2    1    2    0    0 -0.87061804992E+02  0.23039205576E+02  0.95322694279E+03  0.99293535009E+03  0.26299893938E+03 0.  0.
         25    1    1    2    0    0  0.87061804992E+02 -0.23039205576E+02  0.28566942411E+03  0.32459989349E+03  0.12509000000E+03 0.  0.
         25    1    3    3    0    0 -0.34064031645E+02  0.17421620337E+02  0.60766688599E+03  0.62158702008E+03  0.12509000000E+03 0.  0.
         25    1    3    3    0    0 -0.52997773347E+02  0.56175852388E+01  0.34556005680E+03  0.37134833001E+03  0.12509000000E+03 0.  0.
<mgrwt>
<rscale>  2 0.44836917E+03</rscale>
<asrwt>0</asrwt>
<pdfrwt beam="1">  1       21 0.18797289E+00 0.44836917E+03</pdfrwt>
<pdfrwt beam="2">  1       21 0.57822712E-02 0.44836917E+03</pdfrwt>
<totfact> 0.30133737E+04</totfact>
</mgrwt>
</event>
<event>
 6    0  0.1539497E-004  0.4047671E+03  0.7546771E-02  0.1042141E+00
         21   -1    0    0  502  501  0.00000000000E+00  0.00000000000E+00  0.23536240410E+03  0.23536240410E+03  0.00000000000E+00 0. -1.
         21   -1    0    0  501  502 -0.00000000000E+00 -0.00000000000E+00 -0.17402566018E+03  0.17402566018E+03  0.00000000000E+00 0. -1.
      99925    2    1    2    0    0 -0.15892808379E+02  0.18795297057E+02 -0.79711552835E+01  0.26427797662E+03  0.26300848857E+03 0.  0.
         25    1    1    2    0    0  0.15892808379E+02 -0.18795297057E+02  0.69307899207E+02  0.14511008766E+03  0.12509000000E+03 0.  0.
         25    1    3    3    0    0 -0.16031153678E+02  0.45322735548E+02  0.13226153938E+02  0.13466100955E+03  0.12509000000E+03 0.  0.
         25    1    3    3    0    0  0.13834529969E+00 -0.26527438492E+02 -0.21197309221E+02  0.12961696706E+03  0.12509000000E+03 0.  0.
<mgrwt>
<rscale>  2 0.40476708E+03</rscale>
<asrwt>0</asrwt>
<pdfrwt beam="1">  1       21 0.34612118E-01 0.40476708E+03</pdfrwt>
<pdfrwt beam="2">  1       21 0.25592009E-01 0.40476708E+03</pdfrwt>
<totfact> 0.10988103E+05</totfact>
</mgrwt>
</event>
<event>
 6    0  0.1539497E-004  0.4005530E+03  0.7546771E-02  0.1043588E+00
         21   -1    0    0  502  501  0.00000000000E+00  0.00000000000E+00  0.74273351975E+03  0.74273351975E+03  0.00000000000E+00 0. -1.
         21   -1    0    0  501  502 -0.00000000000E+00 -0.00000000000E+00 -0.54004121808E+02  0.54004121808E+02  0.00000000000E+00 0. -1.
      99925    2    1    2    0    0  0.38418066347E+02 -0.25727772265E+02  0.44744178180E+03  0.52104743881E+03  0.26296087029E+03 0.  0.
         25    1    1    2    0    0 -0.38418066347E+02  0.25727772265E+02  0.24128761614E+03  0.27569020275E+03  0.12509000000E+03 0.  0.
         25    1    3    3    0    0  0.43168968677E+02  0.16644621401E+02  0.19747262027E+03  0.23829298591E+03  0.12509000000E+03 0.  0.
         25    1    3    3    0    0 -0.47509023294E+01 -0.42372393667E+02  0.24996916153E+03  0.28275445290E+03  0.12509000000E+03 0.  0.
<mgrwt>
<rscale>  2 0.40055298E+03</rscale>
<asrwt>0</asrwt>
<pdfrwt beam="1">  1       21 0.10922551E+00 0.40055298E+03</pdfrwt>
<pdfrwt beam="2">  1       21 0.79417831E-02 0.40055298E+03</pdfrwt>
<totfact> 0.75302455E+04</totfact>
</mgrwt>
</event>
<event>
 6    0  0.1539497E-004  0.4667148E+03  0.7546771E-02  0.1022852E+00
         21   -1    0    0  502  501  0.00000000000E+00  0.00000000000E+00  0.69770257586E+02  0.69770257586E+02  0.00000000000E+00 0.  1.
         21   -1    0    0  501  502 -0.00000000000E+00 -0.00000000000E+00 -0.78049973360E+03  0.78049973360E+03  0.00000000000E+00 0.  1.
      99925    2    1    2    0    0 -0.56154070419E+02  0.99559701382E+02 -0.35589028853E+03  0.45704769930E+03  0.26300054791E+03 0.  0.
         25    1    3    3    0    0 -0.21142221168E+01  0.31066944893E+02 -0.11978864452E+03  0.17597287420E+03  0.12509000000E+03 0.  0.
         25    1    1    2    0    0  0.56154070419E+02 -0.99559701382E+02 -0.35483918748E+03  0.39322229189E+03  0.12509000000E+03 0.  0.
         25    1    3    3    0    0 -0.54039848303E+02  0.68492756489E+02 -0.23610164402E+03  0.28107482510E+03  0.12509000000E+03 0.  0.
<mgrwt>
<rscale>  2 0.46671476E+03</rscale>
<asrwt>0</asrwt>
<pdfrwt beam="1">  1       21 0.10260332E-01 0.46671476E+03</pdfrwt>
<pdfrwt beam="2">  1       21 0.11477937E+00 0.46671476E+03</pdfrwt>
<totfact> 0.41481709E+04</totfact>
</mgrwt>
</event>
<event>
 6    0  0.1539497E-004  0.4145722E+03  0.7546771E-02  0.1038847E+00
         21   -1    0    0  502  501  0.00000000000E+00  0.00000000000E+00  0.39865903534E+02  0.39865903534E+02  0.00000000000E+00 0.  1.
         21   -1    0    0  501  502 -0.00000000000E+00 -0.00000000000E+00 -0.10778011992E+04  0.10778011992E+04  0.00000000000E+00 0.  1.
      99925    2    1    2    0    0 -0.16962567434E+02  0.65579387219E+02 -0.64846093184E+03  0.70302729170E+03  0.26297796110E+03 0.  0.
         25    1    1    2    0    0  0.16962567434E+02 -0.65579387219E+02 -0.38947436383E+03  0.41463981105E+03  0.12509000000E+03 0.  0.
         25    1    3    3    0    0  0.94521014084E+01  0.65254140525E+02 -0.38596391882E+03  0.41105121312E+03  0.12509000000E+03 0.  0.
         25    1    3    3    0    0 -0.26414668843E+02  0.32524669342E+00 -0.26249701302E+03  0.29197607857E+03  0.12509000000E+03 0.  0.
<mgrwt>
<rscale>  2 0.41457216E+03</rscale>
<asrwt>0</asrwt>
<pdfrwt beam="1">  1       21 0.58626338E-02 0.41457216E+03</pdfrwt>
<pdfrwt beam="2">  1       21 0.15850015E+00 0.41457216E+03</pdfrwt>
<totfact> 0.48438727E+04</totfact>
</mgrwt>
</event>
<event>
 6    0  0.1539497E-004  0.3917706E+03  0.7546771E-02  0.1046667E+00
         21   -1    0    0  502  501  0.00000000000E+00  0.00000000000E+00  0.53796262321E+03  0.53796262321E+03  0.00000000000E+00 0.  1.
         21   -1    0    0  501  502 -0.00000000000E+00 -0.00000000000E+00 -0.71326609665E+02  0.71326609665E+02  0.00000000000E+00 0.  1.
      99925    2    1    2    0    0  0.11595362495E+02 -0.20006899884E+02  0.30024463973E+03  0.39984156434E+03  0.26304316074E+03 0.  0.
         25    1    3    3    0    0  0.16705155849E+02  0.17119455977E+02  0.19111276436E+03  0.22966004182E+03  0.12509000000E+03 0.  0.
         25    1    1    2    0    0 -0.11595362495E+02  0.20006899884E+02  0.16639137381E+03  0.20944766853E+03  0.12509000000E+03 0.  0.
         25    1    3    3    0    0 -0.51097933538E+01 -0.37126355862E+02  0.10913187537E+03  0.17018152253E+03  0.12509000000E+03 0.  0.
<mgrwt>
<rscale>  2 0.39177060E+03</rscale>
<asrwt>0</asrwt>
<pdfrwt beam="1">  1       21 0.79112148E-01 0.39177060E+03</pdfrwt>
<pdfrwt beam="2">  1       21 0.10489208E-01 0.39177060E+03</pdfrwt>
<totfact> 0.99038254E+04</totfact>
</mgrwt>
</event>
<event>
 6    0  0.1549190E-004  0.3945161E+03  0.7546771E-02  0.1045695E+00
         21   -1    0    0  502  501  0.00000000000E+00  0.00000000000E+00  0.57595228549E+02  0.57595228549E+02  0.00000000000E+00 0.  1.
         21   -1    0    0  501  502 -0.00000000000E+00 -0.00000000000E+00 -0.67558948212E+03  0.67558948212E+03  0.00000000000E+00 0.  1.
      99925    2    1    2    0    0  0.10450145904E+02 -0.22812904693E+02 -0.37477817020E+03  0.45853729037E+03  0.26299835670E+03 0.  0.
         25    1    3    3    0    0  0.26185994431E+02  0.19666636267E+02 -0.21181826420E+03  0.24816721789E+03  0.12509000000E+03 0.  0.
         25    1    3    3    0    0 -0.15735848527E+02 -0.42479540960E+02 -0.16295990601E+03  0.21037007248E+03  0.12509000000E+03 0.  0.
         25    1    1    2    0    0 -0.10450145904E+02  0.22812904693E+02 -0.24321608337E+03  0.27464742030E+03  0.12509000000E+03 0.  0.
<mgrwt>
<rscale>  2 0.39451606E+03</rscale>
<asrwt>0</asrwt>
<pdfrwt beam="1">  1       21 0.84698870E-02 0.39451606E+03</pdfrwt>
<pdfrwt beam="2">  1       21 0.99351390E-01 0.39451606E+03</pdfrwt>
<totfact> 0.84850008E+04</totfact>
</mgrwt>
</event>
<event>
 6    0  0.1539497E-004  0.4058991E+03  0.7546771E-02  0.1041756E+00
         21   -1    0    0  502  501  0.00000000000E+00  0.00000000000E+00  0.17089965077E+03  0.17089965077E+03  0.00000000000E+00 0.  1.
         21   -1    0    0  501  502 -0.00000000000E+00 -0.00000000000E+00 -0.24100996472E+03  0.24100996472E+03  0.00000000000E+00 0.  1.
      99925    2    1    2    0    0  0.53635555183E+02  0.10586843337E+02 -0.37342883726E+02  0.27151707076E+03  0.26332142852E+03 0.  0.
         25    1    3    3    0    0  0.37619298545E+02 -0.37726326128E+01  0.20068152148E+02  0.13221075301E+03  0.12509000000E+03 0.  0.
         25    1    3    3    0    0  0.16016256638E+02  0.14359475950E+02 -0.57411035873E+02  0.13930631775E+03  0.12509000000E+03 0.  0.
         25    1    1    2    0    0 -0.53635555183E+02 -0.10586843337E+02 -0.32767430229E+02  0.14039254473E+03  0.12509000000E+03 0.  0.
<mgrwt>
<rscale>  2 0.40589909E+03</rscale>
<asrwt>0</asrwt>
<pdfrwt beam="1">  1       21 0.25132302E-01 0.40589909E+03</pdfrwt>
<pdfrwt beam="2">  1       21 0.35442641E-01 0.40589909E+03</pdfrwt>
<totfact> 0.10847658E+05</totfact>
</mgrwt>
</event>
<event>
 6    0  0.1539497E-004  0.4110045E+03  0.7546771E-02  0.1040034E+00
         21   -1    0    0  502  501  0.00000000000E+00  0.00000000000E+00  0.58218267691E+02  0.58218267691E+02  0.00000000000E+00 0. -1.
         21   -1    0    0  501  502 -0.00000000000E+00 -0.00000000000E+00 -0.72539400389E+03  0.72539400389E+03  0.00000000000E+00 0. -1.
      99925    2    1    2    0    0 -0.14532023103E+02 -0.57642251771E+02 -0.48360200932E+03  0.55365438373E+03  0.26292292468E+03 0.  0.
         25    1    1    2    0    0  0.14532023103E+02  0.57642251771E+02 -0.18357372688E+03  0.22995788785E+03  0.12509000000E+03 0.  0.
         25    1    3    3    0    0 -0.27909277506E+02 -0.10617799020E+02 -0.17571794130E+03  0.21775208018E+03  0.12509000000E+03 0.  0.
         25    1    3    3    0    0  0.13377254403E+02 -0.47024452751E+02 -0.30788406802E+03  0.33590230356E+03  0.12509000000E+03 0.  0.
<mgrwt>
<rscale>  2 0.41100454E+03</rscale>
<asrwt>0</asrwt>
<pdfrwt beam="1">  1       21 0.85615099E-02 0.41100454E+03</pdfrwt>
<pdfrwt beam="2">  1       21 0.10667559E+00 0.41100454E+03</pdfrwt>
<totfact> 0.69694127E+04</totfact>
</mgrwt>
</event>
<event>
 6    0  0.1539497E-004  0.4300494E+03  0.7546771E-02  0.1033844E+00
         21   -1    0    0  502  501  0.00000000000E+00  0.00000000000E+00  0.97009965368E+02  0.97009965368E+02  0.00000000000E+00 0.  1.
         21   -1    0    0  501  502 -0.00000000000E+00 -0.00000000000E+00 -0.47660689303E+03  0.47660689303E+03  0.00000000000E+00 0.  1.
      99925    2    1    2    0    0 -0.84782652261E+02  0.68307631463E+01 -0.27295454435E+03  0.38853616392E+03  0.26309961981E+03 0.  0.
         25    1    3    3    0    0 -0.84573013374E+02 -0.23887726690E+01 -0.14501745380E+03  0.20937017656E+03  0.12509000000E+03 0.  0.
         25    1    1    2    0    0  0.84782652261E+02 -0.68307631463E+01 -0.10664238331E+03  0.18508069448E+03  0.12509000000E+03 0.  0.
         25    1    3    3    0    0 -0.20963888732E+00  0.92195358154E+01 -0.12793709055E+03  0.17916598736E+03  0.12509000000E+03 0.  0.
<mgrwt>
<rscale>  2 0.43004938E+03</rscale>
<asrwt>0</asrwt>
<pdfrwt beam="1">  1       21 0.14266171E-01 0.43004938E+03</pdfrwt>
<pdfrwt beam="2">  1       21 0.70089248E-01 0.43004938E+03</pdfrwt>
<totfact> 0.73859702E+04</totfact>
</mgrwt>
</event>
<event>
 6    0  0.1539497E-004  0.4343961E+03  0.7546771E-02  0.1032480E+00
         21   -1    0    0  502  501  0.00000000000E+00  0.00000000000E+00  0.13571415815E+03  0.13571415815E+03  0.00000000000E+00 0. -1.
         21   -1    0    0  501  502 -0.00000000000E+00 -0.00000000000E+00 -0.34760560374E+03  0.34760560374E+03  0.00000000000E+00 0. -1.
      99925    2    1    2    0    0 -0.25211707191E+02  0.51979016012E+02 -0.21565860640E+03  0.34548236534E+03  0.26365125064E+03 0.  0.
         25    1    3    3    0    0  0.28862236222E+02  0.30400730192E+02 -0.10444632488E+03  0.16826697821E+03  0.12509000000E+03 0.  0.
         25    1    1    2    0    0  0.25211707191E+02 -0.51979016012E+02  0.37671608081E+01  0.13783739654E+03  0.12509000000E+03 0.  0.
         25    1    3    3    0    0 -0.54073943413E+02  0.21578285820E+02 -0.11121228152E+03  0.17721538713E+03  0.12509000000E+03 0.  0.
<mgrwt>
<rscale>  2 0.43439614E+03</rscale>
<asrwt>0</asrwt>
<pdfrwt beam="1">  1       21 0.19957965E-01 0.43439614E+03</pdfrwt>
<pdfrwt beam="2">  1       21 0.51118470E-01 0.43439614E+03</pdfrwt>
<totfact> 0.78540440E+04</totfact>
</mgrwt>
</event>
<event>
 6    0  0.1539497E-004  0.4014865E+03  0.7546771E-02  0.1043266E+00
         21   -1    0    0  502  501  0.00000000000E+00  0.00000000000E+00  0.45491018389E+02  0.45491018389E+02  0.00000000000E+00 0.  1.
         21   -1    0    0  501  502 -0.00000000000E+00 -0.00000000000E+00 -0.88584211936E+03  0.88584211936E+03  0.00000000000E+00 0.  1.
      99925    2    1    2    0    0  0.49280846378E+01  0.42861414644E+02 -0.59941603121E+03  0.65645388639E+03  0.26414151437E+03 0.  0.
         25    1    1    2    0    0 -0.49280846378E+01 -0.42861414644E+02 -0.24093506977E+03  0.27487925136E+03  0.12509000000E+03 0.  0.
         25    1    3    3    0    0  0.22761129428E+02 -0.16018833688E+02 -0.29573696734E+03  0.32230813517E+03  0.12509000000E+03 0.  0.
         25    1    3    3    0    0 -0.17833044790E+02  0.58880248333E+02 -0.30367906386E+03  0.33414575122E+03  0.12509000000E+03 0.  0.
<mgrwt>
<rscale>  2 0.40148654E+03</rscale>
<asrwt>0</asrwt>
<pdfrwt beam="1">  1       21 0.66898552E-02 0.40148654E+03</pdfrwt>
<pdfrwt beam="2">  1       21 0.13027091E+00 0.40148654E+03</pdfrwt>
<totfact> 0.65219988E+04</totfact>
</mgrwt>
</event>
<event>
 6    0  0.1539497E-004  0.5396776E+03  0.7546771E-02  0.1003912E+00
         21   -1    0    0  502  501  0.00000000000E+00  0.00000000000E+00  0.50106332407E+03  0.50106332407E+03  0.00000000000E+00 0. -1.
         21   -1    0    0  501  502 -0.00000000000E+00 -0.00000000000E+00 -0.14531693617E+03  0.14531693617E+03  0.00000000000E+00 0. -1.
      99925    2    1    2    0    0  0.36631645434E+02  0.72269207784E+02  0.40485277920E+03  0.48946097651E+03  0.26287175363E+03 0.  0.
         25    1    3    3    0    0  0.25803973221E+02 -0.40822054455E+01  0.17627759557E+03  0.21772415630E+03  0.12509000000E+03 0.  0.
         25    1    3    3    0    0  0.10827672213E+02  0.76351413229E+02  0.22857518363E+03  0.27173682021E+03  0.12509000000E+03 0.  0.
         25    1    1    2    0    0 -0.36631645434E+02 -0.72269207784E+02 -0.49106391291E+02  0.15691928373E+03  0.12509000000E+03 0.  0.
<mgrwt>
<rscale>  2 0.53967763E+03</rscale>
<asrwt>0</asrwt>
<pdfrwt beam="1">  1       21 0.73685782E-01 0.53967763E+03</pdfrwt>
<pdfrwt beam="2">  1       21 0.21370138E-01 0.53967763E+03</pdfrwt>
<totfact> 0.30122361E+04</totfact>
</mgrwt>
</event>
<event>
 6    0  0.1539497E-004  0.4782188E+03  0.7546771E-02  0.1019626E+00
         21   -1    0    0  502  501  0.00000000000E+00  0.00000000000E+00  0.22479859733E+03  0.22479859733E+03  0.00000000000E+00 0. -1.
         21   -1    0    0  501  502 -0.00000000000E+00 -0.00000000000E+00 -0.25433121276E+03  0.25433121276E+03  0.00000000000E+00 0. -1.
      99925    2    1    2    0    0 -0.99945899875E+02  0.72370208172E+02 -0.70096895703E+02  0.29879789703E+03  0.26294482036E+03 0.  0.
         25    1    3    3    0    0 -0.79393092645E+02  0.68815930058E+02 -0.45989275838E+02  0.16970980226E+03  0.12509000000E+03 0.  0.
         25    1    3    3    0    0 -0.20552807231E+02  0.35542781141E+01 -0.24107619865E+02  0.12908809478E+03  0.12509000000E+03 0.  0.
         25    1    1    2    0    0  0.99945899875E+02 -0.72370208172E+02  0.40564280267E+02  0.18033191306E+03  0.12509000000E+03 0.  0.
<mgrwt>
<rscale>  2 0.47821878E+03</rscale>
<asrwt>0</asrwt>
<pdfrwt beam="1">  1       21 0.33058617E-01 0.47821878E+03</pdfrwt>
<pdfrwt beam="2">  1       21 0.37401649E-01 0.47821878E+03</pdfrwt>
<totfact> 0.55747213E+04</totfact>
</mgrwt>
</event>
<event>
 6    0  0.1539497E-004  0.4524667E+03  0.7546771E-02  0.1026989E+00
         21   -1    0    0  502  501  0.00000000000E+00  0.00000000000E+00  0.34561076969E+02  0.34561076969E+02  0.00000000000E+00 0. -1.
         21   -1    0    0  501  502 -0.00000000000E+00 -0.00000000000E+00 -0.14809009133E+04  0.14809009133E+04  0.00000000000E+00 0. -1.
      99925    2    1    2    0    0 -0.11041034905E+03 -0.40543430756E+01 -0.88550874235E+03  0.93032447912E+03  0.26300384181E+03 0.  0.
         25    1    3    3    0    0 -0.23499709294E+02  0.26220836698E+02 -0.39809773948E+03  0.41877092412E+03  0.12509000000E+03 0.  0.
         25    1    1    2    0    0  0.11041034905E+03  0.40543430756E+01 -0.56083109401E+03  0.58513751117E+03  0.12509000000E+03 0.  0.
         25    1    3    3    0    0 -0.86910639755E+02 -0.30275179774E+02 -0.48741100287E+03  0.51155355500E+03  0.12509000000E+03 0.  0.
<mgrwt>
<rscale>  2 0.45246671E+03</rscale>
<asrwt>0</asrwt>
<pdfrwt beam="1">  1       21 0.50825118E-02 0.45246671E+03</pdfrwt>
<pdfrwt beam="2">  1       21 0.21777953E+00 0.45246671E+03</pdfrwt>
<totfact> 0.23868907E+04</totfact>
</mgrwt>
</event>
<event>
 6    0  0.1539497E-004  0.4535146E+03  0.7546771E-02  0.1026679E+00
         21   -1    0    0  502  501  0.00000000000E+00  0.00000000000E+00  0.25227662084E+03  0.25227662084E+03  0.00000000000E+00 0.  1.
         21   -1    0    0  501  502 -0.00000000000E+00 -0.00000000000E+00 -0.20381939949E+03  0.20381939949E+03  0.00000000000E+00 0.  1.
      99925    2    1    2    0    0 -0.76343626276E+02 -0.37332717575E+00 -0.51559013742E+02  0.27867210980E+03  0.26300441867E+03 0.  0.
         25    1    1    2    0    0  0.76343626276E+02  0.37332717575E+00  0.10001623508E+03  0.17742391053E+03  0.12509000000E+03 0.  0.
         25    1    3    3    0    0 -0.55921142443E+02 -0.19319331949E+01  0.10700485558E+02  0.13745150064E+03  0.12509000000E+03 0.  0.
         25    1    3    3    0    0 -0.20422483833E+02  0.15586060192E+01 -0.62259499300E+02  0.14122060916E+03  0.12509000000E+03 0.  0.
<mgrwt>
<rscale>  2 0.45351458E+03</rscale>
<asrwt>0</asrwt>
<pdfrwt beam="1">  1       21 0.37099503E-01 0.45351458E+03</pdfrwt>
<pdfrwt beam="2">  1       21 0.29973441E-01 0.45351458E+03</pdfrwt>
<totfact> 0.69283003E+04</totfact>
</mgrwt>
</event>
<event>
 6    0  0.1539497E-004  0.4362630E+03  0.7546771E-02  0.1031900E+00
         21   -1    0    0  502  501  0.00000000000E+00  0.00000000000E+00  0.84586472126E+03  0.84586472126E+03  0.00000000000E+00 0. -1.
         21   -1    0    0  501  502 -0.00000000000E+00 -0.00000000000E+00 -0.56251731273E+02  0.56251731273E+02  0.00000000000E+00 0. -1.
      99925    2    1    2    0    0 -0.90675303387E+02 -0.13031266752E+02  0.55305330567E+03  0.61927406374E+03  0.26313605330E+03 0.  0.
         25    1    3    3    0    0 -0.60705372403E+02 -0.37073256022E+02  0.23792721304E+03  0.27805833085E+03  0.12509000000E+03 0.  0.
         25    1    1    2    0    0  0.90675303387E+02  0.13031266752E+02  0.23655968432E+03  0.28284238880E+03  0.12509000000E+03 0.  0.
         25    1    3    3    0    0 -0.29969930984E+02  0.24041989270E+02  0.31512609263E+03  0.34121573289E+03  0.12509000000E+03 0.  0.
<mgrwt>
<rscale>  2 0.43626302E+03</rscale>
<asrwt>0</asrwt>
<pdfrwt beam="1">  1       21 0.12439186E+00 0.43626302E+03</pdfrwt>
<pdfrwt beam="2">  1       21 0.82723139E-02 0.43626302E+03</pdfrwt>
<totfact> 0.50093183E+04</totfact>
</mgrwt>
</event>
<event>
 6    0  0.1539497E-004  0.4793658E+03  0.7546771E-02  0.1019310E+00
         21   -1    0    0  502  501  0.00000000000E+00  0.00000000000E+00  0.14863563213E+02  0.14863563213E+02  0.00000000000E+00 0. -1.
         21   -1    0    0  501  502 -0.00000000000E+00 -0.00000000000E+00 -0.38650147528E+04  0.38650147528E+04  0.00000000000E+00 0. -1.
      99925    2    1    2    0    0 -0.41900232997E+02  0.90749336810E+02 -0.31057493349E+04  0.31184502491E+04  0.26279641072E+03 0.  0.
         25    1    3    3    0    0 -0.61530072124E+02  0.49396738735E+02 -0.16673395952E+04  0.16738861435E+04  0.12509000000E+03 0.  0.
         25    1    1    2    0    0  0.41900232997E+02 -0.90749336810E+02 -0.74440185471E+03  0.76142806689E+03  0.12509000000E+03 0.  0.
         25    1    3    3    0    0  0.19629839127E+02  0.41352598076E+02 -0.14384097397E+04  0.14445641056E+04  0.12509000000E+03 0.  0.
<mgrwt>
<rscale>  2 0.47936579E+03</rscale>
<asrwt>0</asrwt>
<pdfrwt beam="1">  1       21 0.21858162E-02 0.47936579E+03</pdfrwt>
<pdfrwt beam="2">  1       21 0.56838503E+00 0.47936579E+03</pdfrwt>
<totfact> 0.48781054E+02</totfact>
</mgrwt>
</event>
<event>
 6    0  0.1539497E-004  0.3902375E+03  0.7546771E-02  0.1047213E+00
         21   -1    0    0  502  501  0.00000000000E+00  0.00000000000E+00  0.25058793215E+03  0.25058793215E+03  0.00000000000E+00 0.  1.
         21   -1    0    0  501  502 -0.00000000000E+00 -0.00000000000E+00 -0.15192803050E+03  0.15192803050E+03  0.00000000000E+00 0.  1.
      99925    2    1    2    0    0  0.56434443130E+00  0.18273115745E+02  0.61252152763E+02  0.27067866512E+03  0.26302260034E+03 0.  0.
         25    1    3    3    0    0  0.12896405393E+02  0.20153078247E+02 -0.71597527219E+01  0.12755874723E+03  0.12509000000E+03 0.  0.
         25    1    3    3    0    0 -0.12332060962E+02 -0.18799625022E+01  0.68411905485E+02  0.14311991790E+03  0.12509000000E+03 0.  0.
         25    1    1    2    0    0 -0.56434443130E+00 -0.18273115745E+02  0.37407748888E+02  0.13183729753E+03  0.12509000000E+03 0.  0.
<mgrwt>
<rscale>  2 0.39023752E+03</rscale>
<asrwt>0</asrwt>
<pdfrwt beam="1">  1       21 0.36851166E-01 0.39023752E+03</pdfrwt>
<pdfrwt beam="2">  1       21 0.22342357E-01 0.39023752E+03</pdfrwt>
<totfact> 0.12619314E+05</totfact>
</mgrwt>
</event>
<event>
 6    0  0.1539497E-004  0.5278452E+03  0.7546771E-02  0.1006756E+00
         21   -1    0    0  502  501  0.00000000000E+00  0.00000000000E+00  0.97581005697E+02  0.97581005697E+02  0.00000000000E+00 0.  1.
         21   -1    0    0  501  502 -0.00000000000E+00 -0.00000000000E+00 -0.71381873234E+03  0.71381873234E+03  0.00000000000E+00 0.  1.
      99925    2    1    2    0    0 -0.78025634843E+02 -0.27478470971E+02 -0.60036438812E+03  0.66059344826E+03  0.26287494994E+03 0.  0.
         25    1    3    3    0    0 -0.31226277240E+02  0.23851976870E+02 -0.25417179107E+03  0.28599791025E+03  0.12509000000E+03 0.  0.
         25    1    1    2    0    0  0.78025634843E+02  0.27478470971E+02 -0.15873338523E+02  0.15080628977E+03  0.12509000000E+03 0.  0.
         25    1    3    3    0    0 -0.46799357603E+02 -0.51330447842E+02 -0.34619259706E+03  0.37459553802E+03  0.12509000000E+03 0.  0.
<mgrwt>
<rscale>  2 0.52784524E+03</rscale>
<asrwt>0</asrwt>
<pdfrwt beam="1">  1       21 0.14350149E-01 0.52784524E+03</pdfrwt>
<pdfrwt beam="2">  1       21 0.10497334E+00 0.52784524E+03</pdfrwt>
<totfact> 0.27670579E+04</totfact>
</mgrwt>
</event>
<event>
 6    0  0.1539497E-004  0.3984455E+03  0.7546771E-02  0.1044319E+00
         21   -1    0    0  502  501  0.00000000000E+00  0.00000000000E+00  0.26385097972E+02  0.26385097972E+02  0.00000000000E+00 0. -1.
         21   -1    0    0  501  502 -0.00000000000E+00 -0.00000000000E+00 -0.15042472861E+04  0.15042472861E+04  0.00000000000E+00 0. -1.
      99925    2    1    2    0    0 -0.39390556700E+02 -0.10921812661E+02 -0.94678204338E+03  0.98349023601E+03  0.26303213624E+03 0.  0.
         25    1    3    3    0    0 -0.94308734636E+01 -0.41619436003E+02 -0.41648561262E+03  0.43695410794E+03  0.12509000000E+03 0.  0.
         25    1    3    3    0    0 -0.29959683236E+02  0.30697623342E+02 -0.53029643076E+03  0.54653612806E+03  0.12509000000E+03 0.  0.
         25    1    1    2    0    0  0.39390556700E+02  0.10921812661E+02 -0.53108014473E+03  0.54714214805E+03  0.12509000000E+03 0.  0.
<mgrwt>
<rscale>  2 0.39844554E+03</rscale>
<asrwt>0</asrwt>
<pdfrwt beam="1">  1       21 0.38801605E-02 0.39844554E+03</pdfrwt>
<pdfrwt beam="2">  1       21 0.22121289E+00 0.39844554E+03</pdfrwt>
<totfact> 0.36708612E+04</totfact>
</mgrwt>
</event>
<event>
 6    0  0.1539497E-004  0.4240445E+03  0.7546771E-02  0.1035758E+00
         21   -1    0    0  502  501  0.00000000000E+00  0.00000000000E+00  0.31749489696E+02  0.31749489696E+02  0.00000000000E+00 0. -1.
         21   -1    0    0  501  502 -0.00000000000E+00 -0.00000000000E+00 -0.14158789302E+04  0.14158789302E+04  0.00000000000E+00 0. -1.
      99925    2    1    2    0    0  0.68464812463E+02  0.30565395440E+02 -0.79649213202E+03  0.84216431001E+03  0.26309567601E+03 0.  0.
         25    1    3    3    0    0  0.59003659825E+02  0.14978703506E+02 -0.51743967295E+03  0.53581444239E+03  0.12509000000E+03 0.  0.
         25    1    3    3    0    0  0.94611526380E+01  0.15586691934E+02 -0.27905245907E+03  0.30634986761E+03  0.12509000000E+03 0.  0.
         25    1    1    2    0    0 -0.68464812463E+02 -0.30565395440E+02 -0.58763730849E+03  0.60546410990E+03  0.12509000000E+03 0.  0.
<mgrwt>
<rscale>  2 0.42404450E+03</rscale>
<asrwt>0</asrwt>
<pdfrwt beam="1">  1       21 0.46690426E-02 0.42404450E+03</pdfrwt>
<pdfrwt beam="2">  1       21 0.20821749E+00 0.42404450E+03</pdfrwt>
<totfact> 0.32156704E+04</totfact>
</mgrwt>
</event>
<event>
 6    0  0.1539497E-004  0.4560522E+03  0.7546771E-02  0.1025932E+00
         21   -1    0    0  502  501  0.00000000000E+00  0.00000000000E+00  0.51695560024E+02  0.51695560024E+02  0.00000000000E+00 0. -1.
         21   -1    0    0  501  502 -0.00000000000E+00 -0.00000000000E+00 -0.10058099348E+04  0.10058099348E+04  0.00000000000E+00 0. -1.
      99925    2    1    2    0    0  0.26453314693E+02  0.32269780622E+02 -0.84648126761E+03  0.88728942492E+03  0.26269920167E+03 0.  0.
         25    1    1    2    0    0 -0.26453314693E+02 -0.32269780622E+02 -0.10763310720E+03  0.17021606994E+03  0.12509000000E+03 0.  0.
         25    1    3    3    0    0  0.19339633066E+02  0.55337642968E+02 -0.41452418610E+03  0.43693716379E+03  0.12509000000E+03 0.  0.
         25    1    3    3    0    0  0.71136816264E+01 -0.23067862346E+02 -0.43195708151E+03  0.45035226113E+03  0.12509000000E+03 0.  0.
<mgrwt>
<rscale>  2 0.45605222E+03</rscale>
<asrwt>0</asrwt>
<pdfrwt beam="1">  1       21 0.76022889E-02 0.45605222E+03</pdfrwt>
<pdfrwt beam="2">  1       21 0.14791321E+00 0.45605222E+03</pdfrwt>
<totfact> 0.36700867E+04</totfact>
</mgrwt>
</event>
<event>
 6    0  0.1539497E-004  0.4039225E+03  0.7546771E-02  0.1042430E+00
         21   -1    0    0  502  501  0.00000000000E+00  0.00000000000E+00  0.82696279149E+03  0.82696279149E+03  0.00000000000E+00 0.  1.
         21   -1    0    0  501  502 -0.00000000000E+00 -0.00000000000E+00 -0.49323075182E+02  0.49323075182E+02  0.00000000000E+00 0.  1.
      99925    2    1    2    0    0 -0.84616242801E+00 -0.52449970253E+02  0.52281721573E+03  0.58761004456E+03  0.26305134106E+03 0.  0.
         25    1    3    3    0    0 -0.27750937432E+01  0.42008430006E+01  0.31004235828E+03  0.33436375440E+03  0.12509000000E+03 0.  0.
         25    1    3    3    0    0  0.19289313152E+01 -0.56650813254E+02  0.21277485744E+03  0.25324629016E+03  0.12509000000E+03 0.  0.
         25    1    1    2    0    0  0.84616242801E+00  0.52449970253E+02  0.25482250059E+03  0.28867582212E+03  0.12509000000E+03 0.  0.
<mgrwt>
<rscale>  2 0.40392251E+03</rscale>
<asrwt>0</asrwt>
<pdfrwt beam="1">  1       21 0.12161217E+00 0.40392251E+03</pdfrwt>
<pdfrwt beam="2">  1       21 0.72533939E-02 0.40392251E+03</pdfrwt>
<totfact> 0.67481085E+04</totfact>
</mgrwt>
</event>
<event>
 6    0  0.1539497E-004  0.4207078E+03  0.7546771E-02  0.1036836E+00
         21   -1    0    0  502  501  0.00000000000E+00  0.00000000000E+00  0.14321145639E+03  0.14321145639E+03  0.00000000000E+00 0.  1.
         21   -1    0    0  501  502 -0.00000000000E+00 -0.00000000000E+00 -0.30897498860E+03  0.30897498860E+03  0.00000000000E+00 0.  1.
      99925    2    1    2    0    0  0.20542292900E+01  0.12749602200E+02 -0.18921625181E+03  0.32426338073E+03  0.26301554691E+03 0.  0.
         25    1    3    3    0    0  0.27177824118E+01  0.19432707739E+02 -0.14234542111E+03  0.19051179355E+03  0.12509000000E+03 0.  0.
         25    1    1    2    0    0 -0.20542292900E+01 -0.12749602200E+02  0.23452719601E+02  0.12792306426E+03  0.12509000000E+03 0.  0.
         25    1    3    3    0    0 -0.66355312185E+00 -0.66831055392E+01 -0.46870830705E+02  0.13375158718E+03  0.12509000000E+03 0.  0.
<mgrwt>
<rscale>  2 0.42070778E+03</rscale>
<asrwt>0</asrwt>
<pdfrwt beam="1">  1       21 0.21060508E-01 0.42070778E+03</pdfrwt>
<pdfrwt beam="2">  1       21 0.45437498E-01 0.42070778E+03</pdfrwt>
<totfact> 0.91183024E+04</totfact>
</mgrwt>
</event>
<event>
 6    0  0.1539497E-004  0.4214501E+03  0.7546771E-02  0.1036595E+00
         21   -1    0    0  502  501  0.00000000000E+00  0.00000000000E+00  0.29652761507E+03  0.29652761507E+03  0.00000000000E+00 0. -1.
         21   -1    0    0  501  502 -0.00000000000E+00 -0.00000000000E+00 -0.14975009858E+03  0.14975009858E+03  0.00000000000E+00 0. -1.
      99925    2    1    2    0    0 -0.44513158144E+02 -0.59150348462E+02  0.70502751984E+02  0.28212676856E+03  0.26295378022E+03 0.  0.
         25    1    3    3    0    0 -0.30738146208E+01 -0.54972685290E+02  0.61812645977E+02  0.14999918589E+03  0.12509000000E+03 0.  0.
         25    1    3    3    0    0 -0.41439343523E+02 -0.41776631725E+01  0.86901060061E+01  0.13212758268E+03  0.12509000000E+03 0.  0.
         25    1    1    2    0    0  0.44513158144E+02  0.59150348462E+02  0.76274764506E+02  0.16415094508E+03  0.12509000000E+03 0.  0.
<mgrwt>
<rscale>  2 0.42145007E+03</rscale>
<asrwt>0</asrwt>
<pdfrwt beam="1">  1       21 0.43607002E-01 0.42145007E+03</pdfrwt>
<pdfrwt beam="2">  1       21 0.22022073E-01 0.42145007E+03</pdfrwt>
<totfact> 0.91206954E+04</totfact>
</mgrwt>
</event>
<event>
 6    0  0.1797035E-004  0.4251762E+03  0.7546771E-02  0.1035395E+00
         21   -1    0    0  502  501  0.00000000000E+00  0.00000000000E+00  0.32644413909E+03  0.32644413909E+03  0.00000000000E+00 0. -1.
         21   -1    0    0  501  502 -0.00000000000E+00 -0.00000000000E+00 -0.13844240211E+03  0.13844240211E+03  0.00000000000E+00 0. -1.
      99925    2    1    2    0    0  0.68239612848E+02 -0.28392400501E+02  0.15953118437E+03  0.31682961419E+03  0.26356788969E+03 0.  0.
         25    1    3    3    0    0 -0.48481450658E+01  0.33398592248E+01  0.79002432785E+02  0.14806603816E+03  0.12509000000E+03 0.  0.
         25    1    3    3    0    0  0.73087757914E+02 -0.31732259726E+02  0.80528751586E+02  0.16876357603E+03  0.12509000000E+03 0.  0.
         25    1    1    2    0    0 -0.68239612848E+02  0.28392400501E+02  0.28470552617E+02  0.14805692701E+03  0.12509000000E+03 0.  0.
<mgrwt>
<rscale>  2 0.42517625E+03</rscale>
<asrwt>0</asrwt>
<pdfrwt beam="1">  1       21 0.48006491E-01 0.42517625E+03</pdfrwt>
<pdfrwt beam="2">  1       21 0.20359177E-01 0.42517625E+03</pdfrwt>
<totfact> 0.86564950E+04</totfact>
</mgrwt>
</event>
<event>
 6    0  0.1539497E-004  0.4143058E+03  0.7546771E-02  0.1038936E+00
         21   -1    0    0  502  501  0.00000000000E+00  0.00000000000E+00  0.10077274762E+03  0.10077274762E+03  0.00000000000E+00 0. -1.
         21   -1    0    0  501  502 -0.00000000000E+00 -0.00000000000E+00 -0.42583269815E+03  0.42583269815E+03  0.00000000000E+00 0. -1.
      99925    2    1    2    0    0  0.66367231104E+02 -0.28661636910E+00 -0.19197871651E+03  0.33227887924E+03  0.26296146958E+03 0.  0.
         25    1    3    3    0    0  0.10410236569E+02 -0.83676983884E+01 -0.51705655162E+02  0.13601240487E+03  0.12509000000E+03 0.  0.
         25    1    3    3    0    0  0.55956994534E+02  0.80810820193E+01 -0.14027306135E+03  0.19626647438E+03  0.12509000000E+03 0.  0.
         25    1    1    2    0    0 -0.66367231104E+02  0.28661636910E+00 -0.13308123401E+03  0.19432656653E+03  0.12509000000E+03 0.  0.
<mgrwt>
<rscale>  2 0.41430583E+03</rscale>
<asrwt>0</asrwt>
<pdfrwt beam="1">  1       21 0.14819521E-01 0.41430583E+03</pdfrwt>
<pdfrwt beam="2">  1       21 0.62622457E-01 0.41430583E+03</pdfrwt>
<totfact> 0.88761900E+04</totfact>
</mgrwt>
</event>
<event>
 6    0  0.1539497E-004  0.4004774E+03  0.7546771E-02  0.1043614E+00
         21   -1    0    0  502  501  0.00000000000E+00  0.00000000000E+00  0.37554259389E+02  0.37554259389E+02  0.00000000000E+00 0. -1.
         21   -1    0    0  501  502 -0.00000000000E+00 -0.00000000000E+00 -0.10676696088E+04  0.10676696088E+04  0.00000000000E+00 0. -1.
      99925    2    1    2    0    0 -0.27008731379E+01  0.46458264887E+02 -0.69328479930E+03  0.74291461813E+03  0.26289285231E+03 0.  0.
         25    1    1    2    0    0  0.27008731379E+01 -0.46458264887E+02 -0.33683055014E+03  0.36230925009E+03  0.12509000000E+03 0.  0.
         25    1    3    3    0    0 -0.19947146488E+02  0.23364779705E+02 -0.24744856219E+03  0.27896612808E+03  0.12509000000E+03 0.  0.
         25    1    3    3    0    0  0.17246273350E+02  0.23093485182E+02 -0.44583623711E+03  0.46394849005E+03  0.12509000000E+03 0.  0.
<mgrwt>
<rscale>  2 0.40047742E+03</rscale>
<asrwt>0</asrwt>
<pdfrwt beam="1">  1       21 0.55226859E-02 0.40047742E+03</pdfrwt>
<pdfrwt beam="2">  1       21 0.15701022E+00 0.40047742E+03</pdfrwt>
<totfact> 0.55365623E+04</totfact>
</mgrwt>
</event>
<event>
 6    0  0.1539497E-004  0.4100224E+03  0.7546771E-02  0.1040363E+00
         21   -1    0    0  502  501  0.00000000000E+00  0.00000000000E+00  0.20511608704E+04  0.20511608704E+04  0.00000000000E+00 0. -1.
         21   -1    0    0  501  502 -0.00000000000E+00 -0.00000000000E+00 -0.20490639442E+02  0.20490639442E+02  0.00000000000E+00 0. -1.
      99925    2    1    2    0    0  0.21480857305E+02  0.25408294300E+02  0.16044707707E+04  0.16262298033E+04  0.26303975061E+03 0.  0.
         25    1    1    2    0    0 -0.21480857305E+02 -0.25408294300E+02  0.42619946022E+03  0.44542170653E+03  0.12509000000E+03 0.  0.
         25    1    3    3    0    0  0.97745526754E+01 -0.37436860077E+01  0.56426853120E+03  0.57806231539E+03  0.12509000000E+03 0.  0.
         25    1    3    3    0    0  0.11706304629E+02  0.29151980308E+02  0.10402022395E+04  0.10481674879E+04  0.12509000000E+03 0.  0.
<mgrwt>
<rscale>  2 0.41002243E+03</rscale>
<asrwt>0</asrwt>
<pdfrwt beam="1">  1       21 0.30164116E+00 0.41002243E+03</pdfrwt>
<pdfrwt beam="2">  1       21 0.30133307E-02 0.41002243E+03</pdfrwt>
<totfact> 0.18127075E+04</totfact>
</mgrwt>
</event>
<event>
 6    0  0.1539497E-004  0.4130062E+03  0.7546771E-02  0.1039367E+00
         21   -1    0    0  502  501  0.00000000000E+00  0.00000000000E+00  0.31340671064E+02  0.31340671064E+02  0.00000000000E+00 0.  1.
         21   -1    0    0  501  502 -0.00000000000E+00 -0.00000000000E+00 -0.13606448122E+04  0.13606448122E+04  0.00000000000E+00 0.  1.
      99925    2    1    2    0    0 -0.14126868008E+02 -0.22147140899E+02 -0.10806120202E+04  0.11123690615E+04  0.26258813065E+03 0.  0.
         25    1    3    3    0    0 -0.11221437456E+02  0.59390542777E+01 -0.68649161856E+03  0.69791077043E+03  0.12509000000E+03 0.  0.
         25    1    1    2    0    0  0.14126868008E+02  0.22147140899E+02 -0.24869212095E+03  0.27961642186E+03  0.12509000000E+03 0.  0.
         25    1    3    3    0    0 -0.29054305521E+01 -0.28086195176E+02 -0.39412040166E+03  0.41445829102E+03  0.12509000000E+03 0.  0.
<mgrwt>
<rscale>  2 0.41300616E+03</rscale>
<asrwt>0</asrwt>
<pdfrwt beam="1">  1       21 0.46089222E-02 0.41300616E+03</pdfrwt>
<pdfrwt beam="2">  1       21 0.20009483E+00 0.41300616E+03</pdfrwt>
<totfact> 0.37320516E+04</totfact>
</mgrwt>
</event>
<event>
 6    0  0.1539497E-004  0.4333949E+03  0.7546771E-02  0.1032793E+00
         21   -1    0    0  502  501  0.00000000000E+00  0.00000000000E+00  0.80938938320E+03  0.80938938320E+03  0.00000000000E+00 0. -1.
         21   -1    0    0  501  502 -0.00000000000E+00 -0.00000000000E+00 -0.58016316641E+02  0.58016316641E+02  0.00000000000E+00 0. -1.
      99925    2    1    2    0    0 -0.91340493018E+02  0.30693970013E+01  0.47005258460E+03  0.54624961857E+03  0.26284350219E+03 0.  0.
         25    1    1    2    0    0  0.91340493018E+02 -0.30693970013E+01  0.28132048197E+03  0.32115608127E+03  0.12509000000E+03 0.  0.
         25    1    3    3    0    0 -0.17431573076E+02  0.19362663974E+02  0.17197288417E+03  0.21424507809E+03  0.12509000000E+03 0.  0.
         25    1    3    3    0    0 -0.73908919942E+02 -0.16293266973E+02  0.29807970043E+03  0.33200454049E+03  0.12509000000E+03 0.  0.
<mgrwt>
<rscale>  2 0.43339493E+03</rscale>
<asrwt>0</asrwt>
<pdfrwt beam="1">  1       21 0.11902784E+00 0.43339493E+03</pdfrwt>
<pdfrwt beam="2">  1       21 0.85318118E-02 0.43339493E+03</pdfrwt>
<totfact> 0.53104200E+04</totfact>
</mgrwt>
</event>
<event>
 6    0  0.1539497E-004  0.4487023E+03  0.7546771E-02  0.1028110E+00
         21   -1    0    0  502  501  0.00000000000E+00  0.00000000000E+00  0.28127313156E+02  0.28127313156E+02  0.00000000000E+00 0. -1.
         21   -1    0    0  501  502 -0.00000000000E+00 -0.00000000000E+00 -0.17894864718E+04  0.17894864718E+04  0.00000000000E+00 0. -1.
      99925    2    1    2    0    0 -0.76308995379E+02  0.72145918876E+02 -0.12037351676E+04  0.12365629095E+04  0.26283336743E+03 0.  0.
         25    1    3    3    0    0 -0.15335358045E+01  0.53330211497E+02 -0.56229730899E+03  0.57850863000E+03  0.12509000000E+03 0.  0.
         25    1    3    3    0    0 -0.74775459574E+02  0.18815707379E+02 -0.64143785864E+03  0.65805427952E+03  0.12509000000E+03 0.  0.
         25    1    1    2    0    0  0.76308995379E+02 -0.72145918876E+02 -0.55762399099E+03  0.58105087541E+03  0.12509000000E+03 0.  0.
<mgrwt>
<rscale>  2 0.44870234E+03</rscale>
<asrwt>0</asrwt>
<pdfrwt beam="1">  1       21 0.41363698E-02 0.44870234E+03</pdfrwt>
<pdfrwt beam="2">  1       21 0.26315976E+00 0.44870234E+03</pdfrwt>
<totfact> 0.17776580E+04</totfact>
</mgrwt>
</event>
<event>
 6    0  0.1539497E-004  0.4011542E+03  0.7546771E-02  0.1043381E+00
         21   -1    0    0  502  501  0.00000000000E+00  0.00000000000E+00  0.37613408797E+02  0.37613408797E+02  0.00000000000E+00 0. -1.
         21   -1    0    0  501  502 -0.00000000000E+00 -0.00000000000E+00 -0.10695964705E+04  0.10695964705E+04  0.00000000000E+00 0. -1.
      99925    2    1    2    0    0 -0.30966074481E+02  0.12411047866E+02 -0.59380860632E+03  0.65031022584E+03  0.26302432780E+03 0.  0.
         25    1    3    3    0    0  0.91051580390E+01 -0.22692606079E+02 -0.25056061753E+03  0.28111561577E+03  0.12509000000E+03 0.  0.
         25    1    1    2    0    0  0.30966074481E+02 -0.12411047866E+02 -0.43817445536E+03  0.45689965343E+03  0.12509000000E+03 0.  0.
         25    1    3    3    0    0 -0.40071232520E+02  0.35103653945E+02 -0.34324798880E+03  0.36919461008E+03  0.12509000000E+03 0.  0.
<mgrwt>
<rscale>  2 0.40115418E+03</rscale>
<asrwt>0</asrwt>
<pdfrwt beam="1">  1       21 0.55313836E-02 0.40115418E+03</pdfrwt>
<pdfrwt beam="2">  1       21 0.15729360E+00 0.40115418E+03</pdfrwt>
<totfact> 0.54930434E+04</totfact>
</mgrwt>
</event>
<event>
 6    0  0.1539497E-004  0.4857323E+03  0.7546771E-02  0.1017572E+00
         21   -1    0    0  502  501  0.00000000000E+00  0.00000000000E+00  0.95790810978E+02  0.95790810978E+02  0.00000000000E+00 0.  1.
         21   -1    0    0  501  502 -0.00000000000E+00 -0.00000000000E+00 -0.61575806662E+03  0.61575806662E+03  0.00000000000E+00 0.  1.
      99925    2    1    2    0    0 -0.43415139666E+02  0.15871041609E+02 -0.51259199753E+03  0.57798740543E+03  0.26302494291E+03 0.  0.
         25    1    1    2    0    0  0.43415139666E+02 -0.15871041609E+02 -0.73752581115E+01  0.13356147216E+03  0.12509000000E+03 0.  0.
         25    1    3    3    0    0 -0.47073417065E+02 -0.55406220305E+01 -0.20016999960E+03  0.24075328020E+03  0.12509000000E+03 0.  0.
         25    1    3    3    0    0  0.36582773983E+01  0.21411663640E+02 -0.31242199792E+03  0.33723412523E+03  0.12509000000E+03 0.  0.
<mgrwt>
<rscale>  2 0.48573229E+03</rscale>
<asrwt>0</asrwt>
<pdfrwt beam="1">  1       21 0.14086884E-01 0.48573229E+03</pdfrwt>
<pdfrwt beam="2">  1       21 0.90552655E-01 0.48573229E+03</pdfrwt>
<totfact> 0.41334704E+04</totfact>
</mgrwt>
</event>
<event>
 6    0  0.1539497E-004  0.4650385E+03  0.7546771E-02  0.1023330E+00
         21   -1    0    0  502  501  0.00000000000E+00  0.00000000000E+00  0.11693635184E+03  0.11693635184E+03  0.00000000000E+00 0. -1.
         21   -1    0    0  501  502 -0.00000000000E+00 -0.00000000000E+00 -0.46234724209E+03  0.46234724209E+03  0.00000000000E+00 0. -1.
      99925    2    1    2    0    0 -0.38111724453E+02  0.10416920074E+03 -0.27969079291E+03  0.39964405146E+03  0.26302985060E+03 0.  0.
         25    1    1    2    0    0  0.38111724453E+02 -0.10416920074E+03 -0.65720097342E+02  0.17963954247E+03  0.12509000000E+03 0.  0.
         25    1    3    3    0    0 -0.48466450553E+02  0.24416679108E+02 -0.12330146199E+03  0.18383669296E+03  0.12509000000E+03 0.  0.
         25    1    3    3    0    0  0.10354726100E+02  0.79752521634E+02 -0.15638933092E+03  0.21580735850E+03  0.12509000000E+03 0.  0.
<mgrwt>
<rscale>  2 0.46503849E+03</rscale>
<asrwt>0</asrwt>
<pdfrwt beam="1">  1       21 0.17196523E-01 0.46503849E+03</pdfrwt>
<pdfrwt beam="2">  1       21 0.67992240E-01 0.46503849E+03</pdfrwt>
<totfact> 0.55439150E+04</totfact>
</mgrwt>
</event>
<event>
 6    0  0.1539497E-004  0.4007887E+03  0.7546771E-02  0.1043507E+00
         21   -1    0    0  502  501  0.00000000000E+00  0.00000000000E+00  0.13163433036E+03  0.13163433036E+03  0.00000000000E+00 0.  1.
         21   -1    0    0  501  502 -0.00000000000E+00 -0.00000000000E+00 -0.30507153508E+03  0.30507153508E+03  0.00000000000E+00 0.  1.
      99925    2    1    2    0    0  0.21291193606E+02  0.38122220876E+02 -0.13466381358E+03  0.29865695161E+03  0.26297340817E+03 0.  0.
         25    1    3    3    0    0  0.33402591605E+02  0.39012465108E+02 -0.10031469509E+03  0.16836939066E+03  0.12509000000E+03 0.  0.
         25    1    1    2    0    0 -0.21291193606E+02 -0.38122220876E+02 -0.38773391137E+02  0.13804891383E+03  0.12509000000E+03 0.  0.
         25    1    3    3    0    0 -0.12111397999E+02 -0.89024423151E+00 -0.34349118492E+02  0.13028756095E+03  0.12509000000E+03 0.  0.
<mgrwt>
<rscale>  2 0.40078866E+03</rscale>
<asrwt>0</asrwt>
<pdfrwt beam="1">  1       21 0.19357990E-01 0.40078866E+03</pdfrwt>
<pdfrwt beam="2">  1       21 0.44863460E-01 0.40078866E+03</pdfrwt>
<totfact> 0.11036384E+05</totfact>
</mgrwt>
</event>
<event>
 6    0  0.1539497E-004  0.4099259E+03  0.7546771E-02  0.1040396E+00
         21   -1    0    0  502  501  0.00000000000E+00  0.00000000000E+00  0.34937438936E+03  0.34937438936E+03  0.00000000000E+00 0.  1.
         21   -1    0    0  501  502 -0.00000000000E+00 -0.00000000000E+00 -0.12024298142E+03  0.12024298142E+03  0.00000000000E+00 0.  1.
      99925    2    1    2    0    0 -0.25997305893E+02  0.54248283977E+02  0.16841362992E+03  0.31811524903E+03  0.26308824507E+03 0.  0.
         25    1    3    3    0    0 -0.27731581546E+02  0.80503893657E+01  0.43939115980E+02  0.13569083756E+03  0.12509000000E+03 0.  0.
         25    1    1    2    0    0  0.25997305893E+02 -0.54248283977E+02  0.60717778016E+02  0.15150212175E+03  0.12509000000E+03 0.  0.
         25    1    3    3    0    0  0.17342756535E+01  0.46197894611E+02  0.12447451394E+03  0.18242441147E+03  0.12509000000E+03 0.  0.
<mgrwt>
<rscale>  2 0.40992594E+03</rscale>
<asrwt>0</asrwt>
<pdfrwt beam="1">  1       21 0.51378586E-01 0.40992594E+03</pdfrwt>
<pdfrwt beam="2">  1       21 0.17682791E-01 0.40992594E+03</pdfrwt>
<totfact> 0.98145993E+04</totfact>
</mgrwt>
</event>
<event>
 6    0  0.1539497E-004  0.3997912E+03  0.7546771E-02  0.1043852E+00
         21   -1    0    0  502  501  0.00000000000E+00  0.00000000000E+00  0.82639148947E+03  0.82639148947E+03  0.00000000000E+00 0. -1.
         21   -1    0    0  501  502 -0.00000000000E+00 -0.00000000000E+00 -0.48352691172E+02  0.48352691172E+02  0.00000000000E+00 0. -1.
      99925    2    1    2    0    0 -0.11814263495E+02  0.37870930106E+02  0.56338995429E+03  0.62315837321E+03  0.26333312236E+03 0.  0.
         25    1    3    3    0    0  0.32520543533E+02  0.42396106258E+01  0.28118443928E+03  0.30949597258E+03  0.12509000000E+03 0.  0.
         25    1    3    3    0    0 -0.44334807029E+02  0.33631319480E+02  0.28220551501E+03  0.31366240063E+03  0.12509000000E+03 0.  0.
         25    1    1    2    0    0  0.11814263495E+02 -0.37870930106E+02  0.21464884400E+03  0.25158580743E+03  0.12509000000E+03 0.  0.
<mgrwt>
<rscale>  2 0.39979121E+03</rscale>
<asrwt>0</asrwt>
<pdfrwt beam="1">  1       21 0.12152815E+00 0.39979121E+03</pdfrwt>
<pdfrwt beam="2">  1       21 0.71106904E-02 0.39979121E+03</pdfrwt>
<totfact> 0.70074767E+04</totfact>
</mgrwt>
</event>
<event>
 6    0  0.1539497E-004  0.4286132E+03  0.7546771E-02  0.1034299E+00
         21   -1    0    0  502  501  0.00000000000E+00  0.00000000000E+00  0.29554904279E+03  0.29554904279E+03  0.00000000000E+00 0. -1.
         21   -1    0    0  501  502 -0.00000000000E+00 -0.00000000000E+00 -0.15539660888E+03  0.15539660888E+03  0.00000000000E+00 0. -1.
      99925    2    1    2    0    0  0.80178497450E+02 -0.22795289027E+02  0.67525914231E+02  0.28400154091E+03  0.26296180234E+03 0.  0.
         25    1    3    3    0    0 -0.87774493022E+00 -0.20507164783E+02  0.32774149716E+02  0.13093115456E+03  0.12509000000E+03 0.  0.
         25    1    1    2    0    0 -0.80178497450E+02  0.22795289027E+02  0.72626519685E+02  0.16694411076E+03  0.12509000000E+03 0.  0.
         25    1    3    3    0    0  0.81056242381E+02 -0.22881242442E+01  0.34751764515E+02  0.15307038635E+03  0.12509000000E+03 0.  0.
<mgrwt>
<rscale>  2 0.42861320E+03</rscale>
<asrwt>0</asrwt>
<pdfrwt beam="1">  1       21 0.43463095E-01 0.42861320E+03</pdfrwt>
<pdfrwt beam="2">  1       21 0.22852442E-01 0.42861320E+03</pdfrwt>
<totfact> 0.85406595E+04</totfact>
</mgrwt>
</event>
<event>
 6    0  0.1539497E-004  0.4418686E+03  0.7546771E-02  0.1030175E+00
         21   -1    0    0  502  501  0.00000000000E+00  0.00000000000E+00  0.11324534144E+03  0.11324534144E+03  0.00000000000E+00 0.  1.
         21   -1    0    0  501  502 -0.00000000000E+00 -0.00000000000E+00 -0.43102854295E+03  0.43102854295E+03  0.00000000000E+00 0.  1.
      99925    2    1    2    0    0  0.76463562569E+02 -0.55124287134E+02 -0.15994665611E+03  0.32191101295E+03  0.26297985479E+03 0.  0.
         25    1    1    2    0    0 -0.76463562569E+02  0.55124287134E+02 -0.15783654539E+03  0.22236287144E+03  0.12509000000E+03 0.  0.
         25    1    3    3    0    0  0.36980728520E+02 -0.41884617767E+01 -0.38594803640E+02  0.13609623236E+03  0.12509000000E+03 0.  0.
         25    1    3    3    0    0  0.39482834049E+02 -0.50935825357E+02 -0.12135185247E+03  0.18581478059E+03  0.12509000000E+03 0.  0.
<mgrwt>
<rscale>  2 0.44186864E+03</rscale>
<asrwt>0</asrwt>
<pdfrwt beam="1">  1       21 0.16653727E-01 0.44186864E+03</pdfrwt>
<pdfrwt beam="2">  1       21 0.63386551E-01 0.44186864E+03</pdfrwt>
<totfact> 0.69157149E+04</totfact>
</mgrwt>
</event>
<event>
 6    0  0.1539497E-004  0.4767130E+03  0.7546771E-02  0.1020042E+00
         21   -1    0    0  502  501  0.00000000000E+00  0.00000000000E+00  0.81554628699E+02  0.81554628699E+02  0.00000000000E+00 0. -1.
         21   -1    0    0  501  502 -0.00000000000E+00 -0.00000000000E+00 -0.69663516943E+03  0.69663516943E+03  0.00000000000E+00 0. -1.
      99925    2    1    2    0    0 -0.11747304264E+03 -0.13704060138E+02 -0.47757298357E+03  0.55786378199E+03  0.26296069594E+03 0.  0.
         25    1    3    3    0    0 -0.10095207699E+03  0.46024155471E+01 -0.26269735153E+03  0.30800959510E+03  0.12509000000E+03 0.  0.
         25    1    3    3    0    0 -0.16520965648E+02 -0.18306475685E+02 -0.21487563205E+03  0.24985418689E+03  0.12509000000E+03 0.  0.
         25    1    1    2    0    0  0.11747304264E+03  0.13704060138E+02 -0.13750755716E+03  0.22032601614E+03  0.12509000000E+03 0.  0.
<mgrwt>
<rscale>  2 0.47671301E+03</rscale>
<asrwt>0</asrwt>
<pdfrwt beam="1">  1       21 0.11993328E-01 0.47671301E+03</pdfrwt>
<pdfrwt beam="2">  1       21 0.10244635E+00 0.47671301E+03</pdfrwt>
<totfact> 0.41330674E+04</totfact>
</mgrwt>
</event>
<event>
 6    0  0.1539497E-004  0.5167518E+03  0.7546771E-02  0.1009497E+00
         21   -1    0    0  502  501  0.00000000000E+00  0.00000000000E+00  0.44151712280E+02  0.44151712280E+02  0.00000000000E+00 0. -1.
         21   -1    0    0  501  502 -0.00000000000E+00 -0.00000000000E+00 -0.15120163971E+04  0.15120163971E+04  0.00000000000E+00 0. -1.
      99925    2    1    2    0    0  0.14273670753E+03 -0.81518661488E+02 -0.89392299489E+03  0.94618808398E+03  0.26297245031E+03 0.  0.
         25    1    1    2    0    0 -0.14273670753E+03  0.81518661488E+02 -0.57394168992E+03  0.60998002539E+03  0.12509000000E+03 0.  0.
         25    1    3    3    0    0  0.90449751861E+02 -0.77408866671E+02 -0.44963600394E+03  0.48165686374E+03  0.12509000000E+03 0.  0.
         25    1    3    3    0    0  0.52286955670E+02 -0.41097948171E+01 -0.44428699095E+03  0.46453122024E+03  0.12509000000E+03 0.  0.
<mgrwt>
<rscale>  2 0.51675183E+03</rscale>
<asrwt>0</asrwt>
<pdfrwt beam="1">  1       21 0.64929002E-02 0.51675183E+03</pdfrwt>
<pdfrwt beam="2">  1       21 0.22235531E+00 0.51675183E+03</pdfrwt>
<totfact> 0.14270053E+04</totfact>
</mgrwt>
</event>
<event>
 6    0  0.1539497E-004  0.3985019E+03  0.7546771E-02  0.1044300E+00
         21   -1    0    0  502  501  0.00000000000E+00  0.00000000000E+00  0.17328184266E+03  0.17328184266E+03  0.00000000000E+00 0. -1.
         21   -1    0    0  501  502 -0.00000000000E+00 -0.00000000000E+00 -0.22911197917E+03  0.22911197917E+03  0.00000000000E+00 0. -1.
      99925    2    1    2    0    0 -0.12384538027E+01 -0.25021548733E+02 -0.22627288478E+01  0.26402985639E+03  0.26282890529E+03 0.  0.
         25    1    3    3    0    0 -0.19714289326E+02  0.22803314225E+02 -0.57028913675E+01  0.12879703185E+03  0.12509000000E+03 0.  0.
         25    1    1    2    0    0  0.12384538027E+01  0.25021548733E+02 -0.53567407660E+02  0.13836396544E+03  0.12509000000E+03 0.  0.
         25    1    3    3    0    0  0.18475835523E+02 -0.47824862958E+02  0.34401625197E+01  0.13523282454E+03  0.12509000000E+03 0.  0.
<mgrwt>
<rscale>  2 0.39850192E+03</rscale>
<asrwt>0</asrwt>
<pdfrwt beam="1">  1       21 0.25482624E-01 0.39850192E+03</pdfrwt>
<pdfrwt beam="2">  1       21 0.33692938E-01 0.39850192E+03</pdfrwt>
<totfact> 0.11711458E+05</totfact>
</mgrwt>
</event>
<event>
 6    0  0.1539497E-004  0.3981005E+03  0.7546771E-02  0.1044439E+00
         21   -1    0    0  502  501  0.00000000000E+00  0.00000000000E+00  0.72771706163E+03  0.72771706163E+03  0.00000000000E+00 0. -1.
         21   -1    0    0  501  502 -0.00000000000E+00 -0.00000000000E+00 -0.54445605540E+02  0.54445605540E+02  0.00000000000E+00 0. -1.
      99925    2    1    2    0    0 -0.31124979759E+02  0.27652531884E+02  0.44623377392E+03  0.51962306233E+03  0.26296410218E+03 0.  0.
         25    1    3    3    0    0 -0.52170060628E+02 -0.35996516843E+01  0.23024462835E+03  0.26719799719E+03  0.12509000000E+03 0.  0.
         25    1    1    2    0    0  0.31124979759E+02 -0.27652531884E+02  0.22703768217E+03  0.26253960484E+03  0.12509000000E+03 0.  0.
         25    1    3    3    0    0  0.21045080869E+02  0.31252183569E+02  0.21598914557E+03  0.25242506514E+03  0.12509000000E+03 0.  0.
<mgrwt>
<rscale>  2 0.39810047E+03</rscale>
<asrwt>0</asrwt>
<pdfrwt beam="1">  1       21 0.10701721E+00 0.39810047E+03</pdfrwt>
<pdfrwt beam="2">  1       21 0.80067071E-02 0.39810047E+03</pdfrwt>
<totfact> 0.78106902E+04</totfact>
</mgrwt>
</event>
<event>
 6    0  0.1539497E-004  0.4201940E+03  0.7546771E-02  0.1037003E+00
         21   -1    0    0  502  501  0.00000000000E+00  0.00000000000E+00  0.27292851376E+03  0.27292851376E+03  0.00000000000E+00 0.  1.
         21   -1    0    0  501  502 -0.00000000000E+00 -0.00000000000E+00 -0.16173009640E+03  0.16173009640E+03  0.00000000000E+00 0.  1.
      99925    2    1    2    0    0 -0.89675170825E+01 -0.72962141070E+02  0.92593672622E+02  0.28837964715E+03  0.26303106716E+03 0.  0.
         25    1    3    3    0    0  0.15164606576E+02 -0.28005500319E+02  0.81879042220E+02  0.15285927841E+03  0.12509000000E+03 0.  0.
         25    1    3    3    0    0 -0.24132123659E+02 -0.44956640750E+02  0.10714630402E+02  0.13552036874E+03  0.12509000000E+03 0.  0.
         25    1    1    2    0    0  0.89675170825E+01  0.72962141070E+02  0.18604744739E+02  0.14627896301E+03  0.12509000000E+03 0.  0.
<mgrwt>
<rscale>  2 0.42019403E+03</rscale>
<asrwt>0</asrwt>
<pdfrwt beam="1">  1       21 0.40136546E-01 0.42019403E+03</pdfrwt>
<pdfrwt beam="2">  1       21 0.23783838E-01 0.42019403E+03</pdfrwt>
<totfact> 0.93399263E+04</totfact>
</mgrwt>
</event>
<event>
 6    0  0.1539497E-004  0.4166829E+03  0.7546771E-02  0.1038151E+00
         21   -1    0    0  502  501  0.00000000000E+00  0.00000000000E+00  0.46208028006E+03  0.46208028006E+03  0.00000000000E+00 0. -1.
         21   -1    0    0  501  502 -0.00000000000E+00 -0.00000000000E+00 -0.93936409052E+02  0.93936409052E+02  0.00000000000E+00 0. -1.
      99925    2    1    2    0    0 -0.58611809987E+02 -0.29611821313E+02  0.27850902818E+03  0.38870226242E+03  0.26307787022E+03 0.  0.
         25    1    1    2    0    0  0.58611809987E+02  0.29611821313E+02  0.89634842825E+02  0.16731442669E+03  0.12509000000E+03 0.  0.
         25    1    3    3    0    0 -0.22305449317E+02  0.21070035028E+02  0.10691868188E+03  0.16739352460E+03  0.12509000000E+03 0.  0.
         25    1    3    3    0    0 -0.36306360670E+02 -0.50681856341E+02  0.17159034631E+03  0.22130873781E+03  0.12509000000E+03 0.  0.
<mgrwt>
<rscale>  2 0.41668291E+03</rscale>
<asrwt>0</asrwt>
<pdfrwt beam="1">  1       21 0.67952982E-01 0.41668291E+03</pdfrwt>
<pdfrwt beam="2">  1       21 0.13814178E-01 0.41668291E+03</pdfrwt>
<totfact> 0.84246929E+04</totfact>
</mgrwt>
</event>
<event>
 6    0  0.1539497E-004  0.4110421E+03  0.7546771E-02  0.1040022E+00
         21   -1    0    0  502  501  0.00000000000E+00  0.00000000000E+00  0.41140932787E+03  0.41140932787E+03  0.00000000000E+00 0.  1.
         21   -1    0    0  501  502 -0.00000000000E+00 -0.00000000000E+00 -0.10266879747E+03  0.10266879747E+03  0.00000000000E+00 0.  1.
      99925    2    1    2    0    0 -0.52637228272E+02 -0.33681025771E+02  0.18693061184E+03  0.32863203168E+03  0.26296552874E+03 0.  0.
         25    1    1    2    0    0  0.52637228272E+02  0.33681025771E+02  0.12180991856E+03  0.18544609367E+03  0.12509000000E+03 0.  0.
         25    1    3    3    0    0 -0.11613777120E+02 -0.46368909051E+02  0.12261424609E+03  0.18156738966E+03  0.12509000000E+03 0.  0.
         25    1    3    3    0    0 -0.41023451152E+02  0.12687883280E+02  0.64316365751E+02  0.14706464201E+03  0.12509000000E+03 0.  0.
<mgrwt>
<rscale>  2 0.41104209E+03</rscale>
<asrwt>0</asrwt>
<pdfrwt beam="1">  1       21 0.60501371E-01 0.41104209E+03</pdfrwt>
<pdfrwt beam="2">  1       21 0.15098353E-01 0.41104209E+03</pdfrwt>
<totfact> 0.92557613E+04</totfact>
</mgrwt>
</event>
<event>
 6    0  0.1539497E-004  0.4119000E+03  0.7546771E-02  0.1039735E+00
         21   -1    0    0  502  501  0.00000000000E+00  0.00000000000E+00  0.38781018203E+02  0.38781018203E+02  0.00000000000E+00 0. -1.
         21   -1    0    0  501  502 -0.00000000000E+00 -0.00000000000E+00 -0.10937154375E+04  0.10937154375E+04  0.00000000000E+00 0. -1.
      99925    2    1    2    0    0 -0.45830206633E+02  0.21041025174E+02 -0.81065279247E+03  0.85345496438E+03  0.26207688509E+03 0.  0.
         25    1    3    3    0    0 -0.45666668471E+02  0.22132449963E+02 -0.32434071935E+03  0.35131140072E+03  0.12509000000E+03 0.  0.
         25    1    3    3    0    0 -0.16353816251E+00 -0.10914247892E+01 -0.48631207313E+03  0.50214356366E+03  0.12509000000E+03 0.  0.
         25    1    1    2    0    0  0.45830206633E+02 -0.21041025174E+02 -0.24428162687E+03  0.27904149137E+03  0.12509000000E+03 0.  0.
<mgrwt>
<rscale>  2 0.41189998E+03</rscale>
<asrwt>0</asrwt>
<pdfrwt beam="1">  1       21 0.57030910E-02 0.41189998E+03</pdfrwt>
<pdfrwt beam="2">  1       21 0.16084050E+00 0.41189998E+03</pdfrwt>
<totfact> 0.48824766E+04</totfact>
</mgrwt>
</event>
<event>
 6    0  0.1539497E-004  0.4384996E+03  0.7546771E-02  0.1031208E+00
         21   -1    0    0  502  501  0.00000000000E+00  0.00000000000E+00  0.13097288689E+03  0.13097288689E+03  0.00000000000E+00 0.  1.
         21   -1    0    0  501  502 -0.00000000000E+00 -0.00000000000E+00 -0.36702613500E+03  0.36702613500E+03  0.00000000000E+00 0.  1.
      99925    2    1    2    0    0  0.21976683507E+02 -0.94929042681E+02 -0.16212821127E+03  0.32305069542E+03  0.26188107446E+03 0.  0.
         25    1    3    3    0    0  0.13294291612E+02 -0.13607255992E+02 -0.49312260628E+02  0.13579802191E+03  0.12509000000E+03 0.  0.
         25    1    3    3    0    0  0.86823918953E+01 -0.81321786689E+02 -0.11281595064E+03  0.18725267352E+03  0.12509000000E+03 0.  0.
         25    1    1    2    0    0 -0.21976683507E+02  0.94929042681E+02 -0.73925036836E+02  0.17494832647E+03  0.12509000000E+03 0.  0.
<mgrwt>
<rscale>  2 0.43849959E+03</rscale>
<asrwt>0</asrwt>
<pdfrwt beam="1">  1       21 0.19260719E-01 0.43849959E+03</pdfrwt>
<pdfrwt beam="2">  1       21 0.53974431E-01 0.43849959E+03</pdfrwt>
<totfact> 0.74728727E+04</totfact>
</mgrwt>
</event>
<event>
 5    0  0.1539497E-004  0.4776326E+03  0.7546771E-02  0.1019788E+00
         21   -1    0    0  502  501  0.00000000000E+00  0.00000000000E+00  0.29074208135E+03  0.29074208135E+03  0.00000000000E+00 0.  1.
         21   -1    0    0  501  502 -0.00000000000E+00 -0.00000000000E+00 -0.19616431862E+03  0.19616431862E+03  0.00000000000E+00 0.  1.
         25    1    1    2    0    0 -0.48592040926E+02  0.78713706689E+02  0.14633490811E+02  0.15626477919E+03  0.12509000000E+03 0.  0.
         25    1    1    2    0    0  0.36407786168E+02  0.49630521383E+02  0.17716360604E+02  0.14053502439E+03  0.12509000000E+03 0.  0.
         25    1    1    2    0    0  0.12184254758E+02 -0.12834422807E+03  0.62227911319E+02  0.19010659639E+03  0.12509000000E+03 0.  0.
<mgrwt>
<rscale>  2 0.47763259E+03</rscale>
<asrwt>0</asrwt>
<pdfrwt beam="1">  1       21 0.42756189E-01 0.47763259E+03</pdfrwt>
<pdfrwt beam="2">  1       21 0.28847694E-01 0.47763259E+03</pdfrwt>
<totfact> 0.55530851E+04</totfact>
</mgrwt>
</event>
<event>
 6    0  0.1539497E-004  0.4138218E+03  0.7546771E-02  0.1039096E+00
         21   -1    0    0  502  501  0.00000000000E+00  0.00000000000E+00  0.22141297724E+03  0.22141297724E+03  0.00000000000E+00 0. -1.
         21   -1    0    0  501  502 -0.00000000000E+00 -0.00000000000E+00 -0.19335871915E+03  0.19335871915E+03  0.00000000000E+00 0. -1.
      99925    2    1    2    0    0  0.39830436020E+02  0.33369077732E+02  0.62356033887E+02  0.27504310624E+03  0.26279360027E+03 0.  0.
         25    1    3    3    0    0  0.59235360223E+02  0.23474026066E+02  0.24131710050E+02  0.14244193670E+03  0.12509000000E+03 0.  0.
         25    1    3    3    0    0 -0.19404924203E+02  0.98950516660E+01  0.38224323837E+02  0.13260116954E+03  0.12509000000E+03 0.  0.
         25    1    1    2    0    0 -0.39830436020E+02 -0.33369077732E+02 -0.34301775796E+02  0.13972859015E+03  0.12509000000E+03 0.  0.
<mgrwt>
<rscale>  2 0.41382184E+03</rscale>
<asrwt>0</asrwt>
<pdfrwt beam="1">  1       21 0.32560732E-01 0.41382184E+03</pdfrwt>
<pdfrwt beam="2">  1       21 0.28435106E-01 0.41382184E+03</pdfrwt>
<totfact> 0.10089150E+05</totfact>
</mgrwt>
</event>
<event>
 6    0  0.1539497E-004  0.4018189E+03  0.7546771E-02  0.1043152E+00
         21   -1    0    0  502  501  0.00000000000E+00  0.00000000000E+00  0.25945187756E+04  0.25945187756E+04  0.00000000000E+00 0.  1.
         21   -1    0    0  501  502 -0.00000000000E+00 -0.00000000000E+00 -0.15557646362E+02  0.15557646362E+02  0.00000000000E+00 0.  1.
      99925    2    1    2    0    0  0.99936919551E+01  0.15866930078E+02  0.14233695028E+04  0.14475829172E+04  0.26299035611E+03 0.  0.
         25    1    3    3    0    0  0.20726505497E+01  0.41710018957E+02  0.84455326202E+03  0.85478754205E+03  0.12509000000E+03 0.  0.
         25    1    3    3    0    0  0.79210414054E+01 -0.25843088879E+02  0.57881624079E+03  0.59279537519E+03  0.12509000000E+03 0.  0.
         25    1    1    2    0    0 -0.99936919551E+01 -0.15866930078E+02  0.11555916264E+04  0.11624935047E+04  0.12509000000E+03 0.  0.
<mgrwt>
<rscale>  2 0.40181889E+03</rscale>
<asrwt>0</asrwt>
<pdfrwt beam="1">  1       21 0.38154658E+00 0.40181889E+03</pdfrwt>
<pdfrwt beam="2">  1       21 0.22878910E-02 0.40181889E+03</pdfrwt>
<totfact> 0.93980130E+03</totfact>
</mgrwt>
</event>
<event>
 6    0  0.1539497E-004  0.4153445E+03  0.7546771E-02  0.1038592E+00
         21   -1    0    0  502  501  0.00000000000E+00  0.00000000000E+00  0.37597686155E+02  0.37597686155E+02  0.00000000000E+00 0.  1.
         21   -1    0    0  501  502 -0.00000000000E+00 -0.00000000000E+00 -0.11470853615E+04  0.11470853615E+04  0.00000000000E+00 0.  1.
      99925    2    1    2    0    0  0.47351046718E+02 -0.23110089973E+02 -0.85748394753E+03  0.89844960303E+03  0.26297674999E+03 0.  0.
         25    1    1    2    0    0 -0.47351046718E+02  0.23110089973E+02 -0.25200372777E+03  0.28623344457E+03  0.12509000000E+03 0.  0.
         25    1    3    3    0    0  0.51632019684E+02  0.17718050751E+02 -0.44652362004E+03  0.46691610181E+03  0.12509000000E+03 0.  0.
         25    1    3    3    0    0 -0.42809729658E+01 -0.40828140724E+02 -0.41096032749E+03  0.43153350122E+03  0.12509000000E+03 0.  0.
<mgrwt>
<rscale>  2 0.41534446E+03</rscale>
<asrwt>0</asrwt>
<pdfrwt beam="1">  1       21 0.55290723E-02 0.41534446E+03</pdfrwt>
<pdfrwt beam="2">  1       21 0.16868900E+00 0.41534446E+03</pdfrwt>
<totfact> 0.45026886E+04</totfact>
</mgrwt>
</event>
<event>
 6    0  0.1539497E-004  0.4243357E+03  0.7546771E-02  0.1035664E+00
         21   -1    0    0  502  501  0.00000000000E+00  0.00000000000E+00  0.46401377811E+03  0.46401377811E+03  0.00000000000E+00 0. -1.
         21   -1    0    0  501  502 -0.00000000000E+00 -0.00000000000E+00 -0.97012641141E+02  0.97012641141E+02  0.00000000000E+00 0. -1.
      99925    2    1    2    0    0 -0.19984838481E+02  0.78258992576E+02  0.25019279701E+03  0.37177642567E+03  0.26286386461E+03 0.  0.
         25    1    3    3    0    0 -0.43929335391E+02  0.59865019859E+02  0.11819970267E+03  0.18743608223E+03  0.12509000000E+03 0.  0.
         25    1    3    3    0    0  0.23944496910E+02  0.18393972718E+02  0.13199309434E+03  0.18434034344E+03  0.12509000000E+03 0.  0.
         25    1    1    2    0    0  0.19984838481E+02 -0.78258992576E+02  0.11680833996E+03  0.18924999359E+03  0.12509000000E+03 0.  0.
<mgrwt>
<rscale>  2 0.42433573E+03</rscale>
<asrwt>0</asrwt>
<pdfrwt beam="1">  1       21 0.68237319E-01 0.42433573E+03</pdfrwt>
<pdfrwt beam="2">  1       21 0.14266565E-01 0.42433573E+03</pdfrwt>
<totfact> 0.78525031E+04</totfact>
</mgrwt>
</event>
<event>
 6    0  0.1539497E-004  0.4073635E+03  0.7546771E-02  0.1041259E+00
         21   -1    0    0  502  501  0.00000000000E+00  0.00000000000E+00  0.13314783913E+03  0.13314783913E+03  0.00000000000E+00 0.  1.
         21   -1    0    0  501  502 -0.00000000000E+00 -0.00000000000E+00 -0.31158035481E+03  0.31158035481E+03  0.00000000000E+00 0.  1.
      99925    2    1    2    0    0  0.53934195702E+02 -0.17271722384E+02 -0.10344447359E+03  0.28827396927E+03  0.26304735768E+03 0.  0.
         25    1    1    2    0    0 -0.53934195702E+02  0.17271722384E+02 -0.74988042094E+02  0.15645422467E+03  0.12509000000E+03 0.  0.
         25    1    3    3    0    0  0.67590016834E+02 -0.17174511905E+02 -0.53097211107E+02  0.15274225402E+03  0.12509000000E+03 0.  0.
         25    1    3    3    0    0 -0.13655821132E+02 -0.97210478950E-01 -0.50347262484E+02  0.13553171526E+03  0.12509000000E+03 0.  0.
<mgrwt>
<rscale>  2 0.40736348E+03</rscale>
<asrwt>0</asrwt>
<pdfrwt beam="1">  1       21 0.19580565E-01 0.40736348E+03</pdfrwt>
<pdfrwt beam="2">  1       21 0.45820640E-01 0.40736348E+03</pdfrwt>
<totfact> 0.10319571E+05</totfact>
</mgrwt>
</event>
<event>
 6    0  0.1539497E-004  0.3908664E+03  0.7546771E-02  0.1046989E+00
         21   -1    0    0  502  501  0.00000000000E+00  0.00000000000E+00  0.20308223452E+03  0.20308223452E+03  0.00000000000E+00 0. -1.
         21   -1    0    0  501  502 -0.00000000000E+00 -0.00000000000E+00 -0.18807222007E+03  0.18807222007E+03  0.00000000000E+00 0. -1.
      99925    2    1    2    0    0 -0.10074872230E+01  0.20292029228E+02  0.21401409350E+01  0.26377343864E+03  0.26298111196E+03 0.  0.
         25    1    3    3    0    0  0.23035842632E+01 -0.15038417592E+02 -0.30631430137E+02  0.12968135223E+03  0.12509000000E+03 0.  0.
         25    1    1    2    0    0  0.10074872230E+01 -0.20292029228E+02  0.12869873511E+02  0.12738101595E+03  0.12509000000E+03 0.  0.
         25    1    3    3    0    0 -0.33110714862E+01  0.35330446820E+02  0.32771571072E+02  0.13409208641E+03  0.12509000000E+03 0.  0.
<mgrwt>
<rscale>  2 0.39086635E+03</rscale>
<asrwt>0</asrwt>
<pdfrwt beam="1">  1       21 0.29865035E-01 0.39086635E+03</pdfrwt>
<pdfrwt beam="2">  1       21 0.27657679E-01 0.39086635E+03</pdfrwt>
<totfact> 0.12712990E+05</totfact>
</mgrwt>
</event>
<event>
 6    0  0.1539497E-004  0.4628691E+03  0.7546771E-02  0.1023952E+00
         21   -1    0    0  502  501  0.00000000000E+00  0.00000000000E+00  0.31695965453E+03  0.31695965453E+03  0.00000000000E+00 0.  1.
         21   -1    0    0  501  502 -0.00000000000E+00 -0.00000000000E+00 -0.16898667310E+03  0.16898667310E+03  0.00000000000E+00 0.  1.
      99925    2    1    2    0    0 -0.81165611310E+02 -0.23380812732E+02  0.18249729226E+03  0.33111107646E+03  0.26304897721E+03 0.  0.
         25    1    1    2    0    0  0.81165611310E+02  0.23380812732E+02 -0.34524310830E+02  0.15483525116E+03  0.12509000000E+03 0.  0.
         25    1    3    3    0    0 -0.33451226625E+02  0.72916331176E+01  0.46368367178E+02  0.13773048338E+03  0.12509000000E+03 0.  0.
         25    1    3    3    0    0 -0.47714384685E+02 -0.30672445850E+02  0.13612892508E+03  0.19338059309E+03  0.12509000000E+03 0.  0.
<mgrwt>
<rscale>  2 0.46286913E+03</rscale>
<asrwt>0</asrwt>
<pdfrwt beam="1">  1       21 0.46611714E-01 0.46286913E+03</pdfrwt>
<pdfrwt beam="2">  1       21 0.24850981E-01 0.46286913E+03</pdfrwt>
<totfact> 0.62287220E+04</totfact>
</mgrwt>
</event>
<event>
 6    0  0.1539497E-004  0.3982521E+03  0.7546771E-02  0.1044387E+00
         21   -1    0    0  502  501  0.00000000000E+00  0.00000000000E+00  0.23397191677E+04  0.23397191677E+04  0.00000000000E+00 0. -1.
         21   -1    0    0  501  502 -0.00000000000E+00 -0.00000000000E+00 -0.16946982826E+02  0.16946982826E+02  0.00000000000E+00 0. -1.
      99925    2    1    2    0    0 -0.24349994042E+02 -0.11973116370E+02  0.17428487804E+04  0.17627848990E+04  0.26296853646E+03 0.  0.
         25    1    3    3    0    0 -0.21943920935E+02 -0.17986813957E+02  0.63115617087E+03  0.64405797974E+03  0.12509000000E+03 0.  0.
         25    1    3    3    0    0 -0.24060731070E+01  0.60136975875E+01  0.11116926095E+04  0.11187269193E+04  0.12509000000E+03 0.  0.
         25    1    1    2    0    0  0.24349994042E+02  0.11973116370E+02  0.57992340445E+03  0.59388125147E+03  0.12509000000E+03 0.  0.
<mgrwt>
<rscale>  2 0.39825208E+03</rscale>
<asrwt>0</asrwt>
<pdfrwt beam="1">  1       21 0.34407613E+00 0.39825208E+03</pdfrwt>
<pdfrwt beam="2">  1       21 0.24922050E-02 0.39825208E+03</pdfrwt>
<totfact> 0.13911981E+04</totfact>
</mgrwt>
</event>
<event>
 6    0  0.1539497E-004  0.4637631E+03  0.7546771E-02  0.1023695E+00
         21   -1    0    0  502  501  0.00000000000E+00  0.00000000000E+00  0.27883982082E+03  0.27883982082E+03  0.00000000000E+00 0. -1.
         21   -1    0    0  501  502 -0.00000000000E+00 -0.00000000000E+00 -0.19283129520E+03  0.19283129520E+03  0.00000000000E+00 0. -1.
      99925    2    1    2    0    0 -0.78657787075E+01  0.56880456573E+01 -0.69144573949E+02  0.27213611471E+03  0.26302636462E+03 0.  0.
         25    1    3    3    0    0 -0.29022228459E+01  0.35837119376E+02 -0.10304615780E+02  0.13056192105E+03  0.12509000000E+03 0.  0.
         25    1    1    2    0    0  0.78657787075E+01 -0.56880456573E+01  0.15515309957E+03  0.19953500130E+03  0.12509000000E+03 0.  0.
         25    1    3    3    0    0 -0.49635558616E+01 -0.30149073718E+02 -0.58839958170E+02  0.14157419366E+03  0.12509000000E+03 0.  0.
<mgrwt>
<rscale>  2 0.46376306E+03</rscale>
<asrwt>0</asrwt>
<pdfrwt beam="1">  1       21 0.41005856E-01 0.46376306E+03</pdfrwt>
<pdfrwt beam="2">  1       21 0.28357543E-01 0.46376306E+03</pdfrwt>
<totfact> 0.62825967E+04</totfact>
</mgrwt>
</event>
<event>
 6    0  0.1539497E-004  0.5021492E+03  0.7546771E-02  0.1013219E+00
         21   -1    0    0  502  501  0.00000000000E+00  0.00000000000E+00  0.44091047496E+03  0.44091047496E+03  0.00000000000E+00 0. -1.
         21   -1    0    0  501  502 -0.00000000000E+00 -0.00000000000E+00 -0.14297335351E+03  0.14297335351E+03  0.00000000000E+00 0. -1.
      99925    2    1    2    0    0  0.13500763276E+03  0.69646369032E+02  0.15776635196E+03  0.34227871607E+03  0.26303387622E+03 0.  0.
         25    1    3    3    0    0  0.79265036554E+02 -0.32974847479E+01  0.67628826940E+02  0.16283422785E+03  0.12509000000E+03 0.  0.
         25    1    1    2    0    0 -0.13500763276E+03 -0.69646369032E+02  0.14017076949E+03  0.24160511240E+03  0.12509000000E+03 0.  0.
         25    1    3    3    0    0  0.55742596202E+02  0.72943853780E+02  0.90137525021E+02  0.17944448822E+03  0.12509000000E+03 0.  0.
<mgrwt>
<rscale>  2 0.50214918E+03</rscale>
<asrwt>0</asrwt>
<pdfrwt beam="1">  1       21 0.64839775E-01 0.50214918E+03</pdfrwt>
<pdfrwt beam="2">  1       21 0.21025493E-01 0.50214918E+03</pdfrwt>
<totfact> 0.41778280E+04</totfact>
</mgrwt>
</event>
<event>
 6    0  0.1539497E-004  0.3957680E+03  0.7546771E-02  0.1045255E+00
         21   -1    0    0  502  501  0.00000000000E+00  0.00000000000E+00  0.37768921698E+02  0.37768921698E+02  0.00000000000E+00 0. -1.
         21   -1    0    0  501  502 -0.00000000000E+00 -0.00000000000E+00 -0.10367805088E+04  0.10367805088E+04  0.00000000000E+00 0. -1.
      99925    2    1    2    0    0 -0.35957102982E+02  0.11284271862E+02 -0.67515390557E+03  0.72533380365E+03  0.26240442540E+03 0.  0.
         25    1    3    3    0    0 -0.93372662008E+01  0.40790204662E+02 -0.29457674023E+03  0.32275995619E+03  0.12509000000E+03 0.  0.
         25    1    3    3    0    0 -0.26619836781E+02 -0.29505932800E+02 -0.38057716534E+03  0.40257384746E+03  0.12509000000E+03 0.  0.
         25    1    1    2    0    0  0.35957102982E+02 -0.11284271862E+02 -0.32385768154E+03  0.34921562686E+03  0.12509000000E+03 0.  0.
<mgrwt>
<rscale>  2 0.39576802E+03</rscale>
<asrwt>0</asrwt>
<pdfrwt beam="1">  1       21 0.55542525E-02 0.39576802E+03</pdfrwt>
<pdfrwt beam="2">  1       21 0.15246774E+00 0.39576802E+03</pdfrwt>
<totfact> 0.59485860E+04</totfact>
</mgrwt>
</event>
<event>
 6    0  0.1539497E-004  0.4722103E+03  0.7546771E-02  0.1021298E+00
         21   -1    0    0  502  501  0.00000000000E+00  0.00000000000E+00  0.39905174639E+02  0.39905174639E+02  0.00000000000E+00 0. -1.
         21   -1    0    0  501  502 -0.00000000000E+00 -0.00000000000E+00 -0.13969529927E+04  0.13969529927E+04  0.00000000000E+00 0. -1.
      99925    2    1    2    0    0 -0.43559460169E+02  0.63299044086E+02 -0.11552016531E+04  0.11872713529E+04  0.26309353929E+03 0.  0.
         25    1    3    3    0    0  0.46128060225E+01  0.47665090879E+02 -0.69046464794E+03  0.70333646076E+03  0.12509000000E+03 0.  0.
         25    1    1    2    0    0  0.43559460169E+02 -0.63299044086E+02 -0.20184616490E+03  0.24958681443E+03  0.12509000000E+03 0.  0.
         25    1    3    3    0    0 -0.48172266192E+02  0.15633953207E+02 -0.46473700517E+03  0.48393489211E+03  0.12509000000E+03 0.  0.
<mgrwt>
<rscale>  2 0.47221035E+03</rscale>
<asrwt>0</asrwt>
<pdfrwt beam="1">  1       21 0.58684077E-02 0.47221035E+03</pdfrwt>
<pdfrwt beam="2">  1       21 0.20543427E+00 0.47221035E+03</pdfrwt>
<totfact> 0.22240148E+04</totfact>
</mgrwt>
</event>
<event>
 6    0  0.1539497E-004  0.4174316E+03  0.7546771E-02  0.1037905E+00
         21   -1    0    0  502  501  0.00000000000E+00  0.00000000000E+00  0.84108220787E+02  0.84108220787E+02  0.00000000000E+00 0. -1.
         21   -1    0    0  501  502 -0.00000000000E+00 -0.00000000000E+00 -0.51793125121E+03  0.51793125121E+03  0.00000000000E+00 0. -1.
      99925    2    1    2    0    0 -0.45858081063E+02 -0.77785984810E+01 -0.36530054411E+03  0.45201844206E+03  0.26213110124E+03 0.  0.
         25    1    1    2    0    0  0.45858081063E+02  0.77785984810E+01 -0.68522486303E+02  0.15002102993E+03  0.12509000000E+03 0.  0.
         25    1    3    3    0    0  0.98129401296E+01 -0.71762047017E+00 -0.13753016772E+03  0.18616891230E+03  0.12509000000E+03 0.  0.
         25    1    3    3    0    0 -0.55671021193E+02 -0.70609780108E+01 -0.22777037639E+03  0.26584952976E+03  0.12509000000E+03 0.  0.
<mgrwt>
<rscale>  2 0.41743156E+03</rscale>
<asrwt>0</asrwt>
<pdfrwt beam="1">  1       21 0.12368856E-01 0.41743156E+03</pdfrwt>
<pdfrwt beam="2">  1       21 0.76166361E-01 0.41743156E+03</pdfrwt>
<totfact> 0.79695944E+04</totfact>
</mgrwt>
</event>
<event>
 6    0  0.1539497E-004  0.4303702E+03  0.7546771E-02  0.1033743E+00
         21   -1    0    0  502  501  0.00000000000E+00  0.00000000000E+00  0.64048935518E+02  0.64048935518E+02  0.00000000000E+00 0.  1.
         21   -1    0    0  501  502 -0.00000000000E+00 -0.00000000000E+00 -0.72295699616E+03  0.72295699616E+03  0.00000000000E+00 0.  1.
      99925    2    1    2    0    0 -0.37271222133E+01 -0.67616877108E+02 -0.32123107533E+03  0.42059197449E+03  0.26291114800E+03 0.  0.
         25    1    3    3    0    0  0.13742693503E+02 -0.46524483654E+02 -0.10963333042E+03  0.17326385787E+03  0.12509000000E+03 0.  0.
         25    1    1    2    0    0  0.37271222133E+01  0.67616877108E+02 -0.33767698531E+03  0.36641395719E+03  0.12509000000E+03 0.  0.
         25    1    3    3    0    0 -0.17469815716E+02 -0.21092393454E+02 -0.21159774491E+03  0.24732811662E+03  0.12509000000E+03 0.  0.
<mgrwt>
<rscale>  2 0.43037019E+03</rscale>
<asrwt>0</asrwt>
<pdfrwt beam="1">  1       21 0.94189609E-02 0.43037019E+03</pdfrwt>
<pdfrwt beam="2">  1       21 0.10631721E+00 0.43037019E+03</pdfrwt>
<totfact> 0.59006373E+04</totfact>
</mgrwt>
</event>
<event>
 6    0  0.1539497E-004  0.3895655E+03  0.7546771E-02  0.1047454E+00
         21   -1    0    0  502  501  0.00000000000E+00  0.00000000000E+00  0.50686881472E+03  0.50686881472E+03  0.00000000000E+00 0.  1.
         21   -1    0    0  501  502 -0.00000000000E+00 -0.00000000000E+00 -0.74852350010E+02  0.74852350010E+02  0.00000000000E+00 0.  1.
      99925    2    1    2    0    0  0.14587120389E+02 -0.70521929442E+01  0.29187939777E+03  0.39317827004E+03  0.26293164831E+03 0.  0.
         25    1    1    2    0    0 -0.14587120389E+02  0.70521929442E+01  0.14013706695E+03  0.18854289469E+03  0.12509000000E+03 0.  0.
         25    1    3    3    0    0  0.17805460970E+02  0.97627692646E+01  0.20100343314E+03  0.23761783254E+03  0.12509000000E+03 0.  0.
         25    1    3    3    0    0 -0.32183405816E+01 -0.16814962209E+02  0.90875964622E+02  0.15556043750E+03  0.12509000000E+03 0.  0.
<mgrwt>
<rscale>  2 0.38956551E+03</rscale>
<asrwt>0</asrwt>
<pdfrwt beam="1">  1       21 0.74539530E-01 0.38956551E+03</pdfrwt>
<pdfrwt beam="2">  1       21 0.11007699E-01 0.38956551E+03</pdfrwt>
<totfact> 0.10406121E+05</totfact>
</mgrwt>
</event>
<event>
 5    0  0.1900595E-004  0.4082435E+03  0.7546771E-02  0.1040962E+00
         21   -1    0    0  502  501  0.00000000000E+00  0.00000000000E+00  0.10776614531E+03  0.10776614531E+03  0.00000000000E+00 0.  1.
         21   -1    0    0  501  502 -0.00000000000E+00 -0.00000000000E+00 -0.38663051968E+03  0.38663051968E+03  0.00000000000E+00 0.  1.
         25    1    1    2    0    0 -0.13383981557E+02  0.14417964392E+02 -0.74391629268E+02  0.14686262719E+03  0.12509000000E+03 0.  0.
         25    1    1    2    0    0  0.93200907823E+01  0.36516242864E+02 -0.15715319253E+03  0.20436470856E+03  0.12509000000E+03 0.  0.
         25    1    1    2    0    0  0.40638907743E+01 -0.50934207256E+02 -0.47319552575E+02  0.14316932923E+03  0.12509000000E+03 0.  0.
<mgrwt>
<rscale>  2 0.40824346E+03</rscale>
<asrwt>0</asrwt>
<pdfrwt beam="1">  1       21 0.15847962E-01 0.40824346E+03</pdfrwt>
<pdfrwt beam="2">  1       21 0.56857430E-01 0.40824346E+03</pdfrwt>
<totfact> 0.96912572E+04</totfact>
</mgrwt>
</event>
<event>
 6    0  0.1539497E-004  0.5156891E+03  0.7546771E-02  0.1009763E+00
         21   -1    0    0  502  501  0.00000000000E+00  0.00000000000E+00  0.48783414773E+03  0.48783414773E+03  0.00000000000E+00 0.  1.
         21   -1    0    0  501  502 -0.00000000000E+00 -0.00000000000E+00 -0.13628361961E+03  0.13628361961E+03  0.00000000000E+00 0.  1.
      99925    2    1    2    0    0  0.71763811385E+02 -0.15946752954E+02  0.34385483392E+02  0.27534059313E+03  0.26310784329E+03 0.  0.
         25    1    3    3    0    0 -0.22828869413E+01  0.34417877990E+01  0.20868722679E+01  0.12517555916E+03  0.12509000000E+03 0.  0.
         25    1    3    3    0    0  0.74046698326E+02 -0.19388540753E+02  0.32298611124E+02  0.15016503397E+03  0.12509000000E+03 0.  0.
         25    1    1    2    0    0 -0.71763811385E+02  0.15946752954E+02  0.31716504473E+03  0.34877717422E+03  0.12509000000E+03 0.  0.
<mgrwt>
<rscale>  2 0.51568907E+03</rscale>
<asrwt>0</asrwt>
<pdfrwt beam="1">  1       21 0.71740315E-01 0.51568907E+03</pdfrwt>
<pdfrwt beam="2">  1       21 0.20041709E-01 0.51568907E+03</pdfrwt>
<totfact> 0.36378800E+04</totfact>
</mgrwt>
</event>
<event>
 6    0  0.1539497E-004  0.3934154E+03  0.7546771E-02  0.1046084E+00
         21   -1    0    0  502  501  0.00000000000E+00  0.00000000000E+00  0.42197178255E+02  0.42197178255E+02  0.00000000000E+00 0.  1.
         21   -1    0    0  501  502 -0.00000000000E+00 -0.00000000000E+00 -0.91697889008E+03  0.91697889008E+03  0.00000000000E+00 0.  1.
      99925    2    1    2    0    0 -0.21914993454E+02 -0.97494591425E+01 -0.54309092877E+03  0.60387112528E+03  0.26293965115E+03 0.  0.
         25    1    3    3    0    0 -0.51376066914E+02 -0.21278906485E+01 -0.27254920073E+03  0.30426074851E+03  0.12509000000E+03 0.  0.
         25    1    3    3    0    0  0.29461073461E+02 -0.76215684940E+01 -0.27054172804E+03  0.29961037677E+03  0.12509000000E+03 0.  0.
         25    1    1    2    0    0  0.21914993454E+02  0.97494591425E+01 -0.33169078306E+03  0.35530494305E+03  0.12509000000E+03 0.  0.
<mgrwt>
<rscale>  2 0.39341541E+03</rscale>
<asrwt>0</asrwt>
<pdfrwt beam="1">  1       21 0.62054678E-02 0.39341541E+03</pdfrwt>
<pdfrwt beam="2">  1       21 0.13484983E+00 0.39341541E+03</pdfrwt>
<totfact> 0.68129955E+04</totfact>
</mgrwt>
</event>
<event>
 6    0  0.1539497E-004  0.4747676E+03  0.7546771E-02  0.1020583E+00
         21   -1    0    0  502  501  0.00000000000E+00  0.00000000000E+00  0.69574282401E+03  0.69574282401E+03  0.00000000000E+00 0.  1.
         21   -1    0    0  501  502 -0.00000000000E+00 -0.00000000000E+00 -0.80994093569E+02  0.80994093569E+02  0.00000000000E+00 0.  1.
      99925    2    1    2    0    0  0.31052545137E+02 -0.12281961175E+03  0.32692155899E+03  0.43829799205E+03  0.26301807259E+03 0.  0.
         25    1    3    3    0    0  0.43768066646E+02 -0.95268911919E+02  0.18161509195E+03  0.24417894865E+03  0.12509000000E+03 0.  0.
         25    1    3    3    0    0 -0.12715521508E+02 -0.27550699831E+02  0.14530646704E+03  0.19411904340E+03  0.12509000000E+03 0.  0.
         25    1    1    2    0    0 -0.31052545137E+02  0.12281961175E+03  0.28782717145E+03  0.33843892554E+03  0.12509000000E+03 0.  0.
<mgrwt>
<rscale>  2 0.47476756E+03</rscale>
<asrwt>0</asrwt>
<pdfrwt beam="1">  1       21 0.10231512E+00 0.47476756E+03</pdfrwt>
<pdfrwt beam="2">  1       21 0.11910896E-01 0.47476756E+03</pdfrwt>
<totfact> 0.42003994E+04</totfact>
</mgrwt>
</event>
<event>
 6    0  0.1539497E-004  0.4788740E+03  0.7546771E-02  0.1019445E+00
         21   -1    0    0  502  501  0.00000000000E+00  0.00000000000E+00  0.61846571615E+02  0.61846571615E+02  0.00000000000E+00 0.  1.
         21   -1    0    0  501  502 -0.00000000000E+00 -0.00000000000E+00 -0.92697244490E+03  0.92697244490E+03  0.00000000000E+00 0.  1.
      99925    2    1    2    0    0 -0.39210590357E+02 -0.14279319037E+02 -0.79713224257E+03  0.84045456233E+03  0.26306404133E+03 0.  0.
         25    1    3    3    0    0  0.12368635798E+02  0.32281383776E+01 -0.45688661396E+03  0.47387370696E+03  0.12509000000E+03 0.  0.
         25    1    3    3    0    0 -0.51579226155E+02 -0.17507457415E+02 -0.34024562861E+03  0.36658085537E+03  0.12509000000E+03 0.  0.
         25    1    1    2    0    0  0.39210590357E+02  0.14279319037E+02 -0.67993630714E+02  0.14836445419E+03  0.12509000000E+03 0.  0.
<mgrwt>
<rscale>  2 0.47887396E+03</rscale>
<asrwt>0</asrwt>
<pdfrwt beam="1">  1       21 0.90950847E-02 0.47887396E+03</pdfrwt>
<pdfrwt beam="2">  1       21 0.13631947E+00 0.47887396E+03</pdfrwt>
<totfact> 0.33003274E+04</totfact>
</mgrwt>
</event>
<event>
 6    0  0.1539497E-004  0.4408228E+03  0.7546771E-02  0.1030495E+00
         21   -1    0    0  502  501  0.00000000000E+00  0.00000000000E+00  0.77146955963E+03  0.77146955963E+03  0.00000000000E+00 0.  1.
         21   -1    0    0  501  502 -0.00000000000E+00 -0.00000000000E+00 -0.62972272265E+02  0.62972272265E+02  0.00000000000E+00 0.  1.
      99925    2    1    2    0    0  0.61811210372E+02  0.32700547315E+02  0.31834807816E+03  0.41880513349E+03  0.26298724198E+03 0.  0.
         25    1    1    2    0    0 -0.61811210372E+02 -0.32700547315E+02  0.39014920920E+03  0.41563669841E+03  0.12509000000E+03 0.  0.
         25    1    3    3    0    0  0.57446325978E+02  0.42254798887E+02  0.19870880453E+03  0.24539406165E+03  0.12509000000E+03 0.  0.
         25    1    3    3    0    0  0.43648843935E+01 -0.95542515719E+01  0.11963927363E+03  0.17341107183E+03  0.12509000000E+03 0.  0.
<mgrwt>
<rscale>  2 0.44082283E+03</rscale>
<asrwt>0</asrwt>
<pdfrwt beam="1">  1       21 0.11345140E+00 0.44082283E+03</pdfrwt>
<pdfrwt beam="2">  1       21 0.92606287E-02 0.44082283E+03</pdfrwt>
<totfact> 0.51653723E+04</totfact>
</mgrwt>
</event>
<event>
 6    0  0.1539497E-004  0.4423977E+03  0.7546771E-02  0.1030014E+00
         21   -1    0    0  502  501  0.00000000000E+00  0.00000000000E+00  0.27467629499E+03  0.27467629499E+03  0.00000000000E+00 0. -1.
         21   -1    0    0  501  502 -0.00000000000E+00 -0.00000000000E+00 -0.17813308853E+03  0.17813308853E+03  0.00000000000E+00 0. -1.
      99925    2    1    2    0    0  0.13411727762E+02 -0.90542446945E+02  0.17978952056E+02  0.27903464625E+03  0.26298152397E+03 0.  0.
         25    1    3    3    0    0  0.14986587013E+02 -0.45735730040E+02  0.48779095634E+02  0.14262981127E+03  0.12509000000E+03 0.  0.
         25    1    1    2    0    0 -0.13411727762E+02  0.90542446945E+02  0.78564254405E+02  0.17377473726E+03  0.12509000000E+03 0.  0.
         25    1    3    3    0    0 -0.15748592513E+01 -0.44806716905E+02 -0.30800143578E+02  0.13640483498E+03  0.12509000000E+03 0.  0.
<mgrwt>
<rscale>  2 0.44239772E+03</rscale>
<asrwt>0</asrwt>
<pdfrwt beam="1">  1       21 0.40393573E-01 0.44239772E+03</pdfrwt>
<pdfrwt beam="2">  1       21 0.26196042E-01 0.44239772E+03</pdfrwt>
<totfact> 0.76059349E+04</totfact>
</mgrwt>
</event>
<event>
 6    0  0.1539497E-004  0.4079828E+03  0.7546771E-02  0.1041050E+00
         21   -1    0    0  502  501  0.00000000000E+00  0.00000000000E+00  0.42245710723E+03  0.42245710723E+03  0.00000000000E+00 0. -1.
         21   -1    0    0  501  502 -0.00000000000E+00 -0.00000000000E+00 -0.98501093461E+02  0.98501093461E+02  0.00000000000E+00 0. -1.
      99925    2    1    2    0    0 -0.20709184075E+02  0.53401065673E+02  0.23405419966E+03  0.35660982558E+03  0.26288525102E+03 0.  0.
         25    1    3    3    0    0  0.12996096743E+02 -0.38085918912E+01  0.12964218716E+03  0.18065992553E+03  0.12509000000E+03 0.  0.
         25    1    3    3    0    0 -0.33705280817E+02  0.57209657565E+02  0.10441201250E+03  0.17594990005E+03  0.12509000000E+03 0.  0.
         25    1    1    2    0    0  0.20709184075E+02 -0.53401065673E+02  0.89901814115E+02  0.16434837511E+03  0.12509000000E+03 0.  0.
<mgrwt>
<rscale>  2 0.40798278E+03</rscale>
<asrwt>0</asrwt>
<pdfrwt beam="1">  1       21 0.62126044E-01 0.40798278E+03</pdfrwt>
<pdfrwt beam="2">  1       21 0.14485455E-01 0.40798278E+03</pdfrwt>
<totfact> 0.94343354E+04</totfact>
</mgrwt>
</event>
<event>
 6    0  0.1539497E-004  0.4682360E+03  0.7546771E-02  0.1022419E+00
         21   -1    0    0  502  501  0.00000000000E+00  0.00000000000E+00  0.10089846303E+03  0.10089846303E+03  0.00000000000E+00 0.  1.
         21   -1    0    0  501  502 -0.00000000000E+00 -0.00000000000E+00 -0.54323173249E+03  0.54323173249E+03  0.00000000000E+00 0.  1.
      99925    2    1    2    0    0 -0.10066884356E+03  0.64818751676E+02 -0.32544060501E+03  0.43521133630E+03  0.26298599434E+03 0.  0.
         25    1    3    3    0    0 -0.48621607289E+02  0.60199563500E+02 -0.21423934729E+03  0.25987315015E+03  0.12509000000E+03 0.  0.
         25    1    1    2    0    0  0.10066884356E+03 -0.64818751676E+02 -0.11689266445E+03  0.20891885922E+03  0.12509000000E+03 0.  0.
         25    1    3    3    0    0 -0.52047236275E+02  0.46191881759E+01 -0.11120125772E+03  0.17533818615E+03  0.12509000000E+03 0.  0.
<mgrwt>
<rscale>  2 0.46823604E+03</rscale>
<asrwt>0</asrwt>
<pdfrwt beam="1">  1       21 0.14838009E-01 0.46823604E+03</pdfrwt>
<pdfrwt beam="2">  1       21 0.79887019E-01 0.46823604E+03</pdfrwt>
<totfact> 0.50550376E+04</totfact>
</mgrwt>
</event>
<event>
 6    0  0.1539497E-004  0.4811359E+03  0.7546771E-02  0.1018823E+00
         21   -1    0    0  502  501  0.00000000000E+00  0.00000000000E+00  0.13199906920E+04  0.13199906920E+04  0.00000000000E+00 0.  1.
         21   -1    0    0  501  502 -0.00000000000E+00 -0.00000000000E+00 -0.43843441641E+02  0.43843441641E+02  0.00000000000E+00 0.  1.
      99925    2    1    2    0    0 -0.13431704490E+03  0.18438636063E+02  0.82331402964E+03  0.87486942558E+03  0.26300089078E+03 0.  0.
         25    1    3    3    0    0 -0.56535318607E+02  0.41376268293E+02  0.33731218595E+03  0.36651774407E+03  0.12509000000E+03 0.  0.
         25    1    1    2    0    0  0.13431704490E+03 -0.18438636063E+02  0.45283322075E+03  0.48896470810E+03  0.12509000000E+03 0.  0.
         25    1    3    3    0    0 -0.77781726295E+02 -0.22937632230E+02  0.48600184370E+03  0.50835168151E+03  0.12509000000E+03 0.  0.
<mgrwt>
<rscale>  2 0.48113588E+03</rscale>
<asrwt>0</asrwt>
<pdfrwt beam="1">  1       21 0.19411625E+00 0.48113588E+03</pdfrwt>
<pdfrwt beam="2">  1       21 0.64475658E-02 0.48113588E+03</pdfrwt>
<totfact> 0.22402155E+04</totfact>
</mgrwt>
</event>
<event>
 6    0  0.1539497E-004  0.4922734E+03  0.7546771E-02  0.1015816E+00
         21   -1    0    0  502  501  0.00000000000E+00  0.00000000000E+00  0.31954155396E+03  0.31954155396E+03  0.00000000000E+00 0.  1.
         21   -1    0    0  501  502 -0.00000000000E+00 -0.00000000000E+00 -0.18959436633E+03  0.18959436633E+03  0.00000000000E+00 0.  1.
      99925    2    1    2    0    0  0.49044141057E+02  0.78328985144E+02  0.19517368121E+03  0.34048610187E+03  0.26324373126E+03 0.  0.
         25    1    3    3    0    0  0.30782826546E+01  0.56910260574E+02  0.13511897588E+03  0.19275087374E+03  0.12509000000E+03 0.  0.
         25    1    1    2    0    0 -0.49044141057E+02 -0.78328985144E+02 -0.65226493576E+02  0.16864981841E+03  0.12509000000E+03 0.  0.
         25    1    3    3    0    0  0.45965858403E+02  0.21418724570E+02  0.60054705327E+02  0.14773522814E+03  0.12509000000E+03 0.  0.
<mgrwt>
<rscale>  2 0.49227341E+03</rscale>
<asrwt>0</asrwt>
<pdfrwt beam="1">  1       21 0.46991405E-01 0.49227341E+03</pdfrwt>
<pdfrwt beam="2">  1       21 0.27881525E-01 0.49227341E+03</pdfrwt>
<totfact> 0.48584649E+04</totfact>
</mgrwt>
</event>
<event>
 6    0  0.1539497E-004  0.4659026E+03  0.7546771E-02  0.1023083E+00
         21   -1    0    0  502  501  0.00000000000E+00  0.00000000000E+00  0.81136465177E+02  0.81136465177E+02  0.00000000000E+00 0. -1.
         21   -1    0    0  501  502 -0.00000000000E+00 -0.00000000000E+00 -0.66882747419E+03  0.66882747419E+03  0.00000000000E+00 0. -1.
      99925    2    1    2    0    0 -0.20880488089E+02  0.12056110741E+03 -0.34396116876E+03  0.44992607754E+03  0.26296998732E+03 0.  0.
         25    1    3    3    0    0 -0.21891735034E+02  0.87541465212E+02 -0.13949149133E+03  0.20796187258E+03  0.12509000000E+03 0.  0.
         25    1    3    3    0    0  0.10112469454E+01  0.33019642199E+02 -0.20446967743E+03  0.24196420495E+03  0.12509000000E+03 0.  0.
         25    1    1    2    0    0  0.20880488089E+02 -0.12056110741E+03 -0.24372984025E+03  0.30003786183E+03  0.12509000000E+03 0.  0.
<mgrwt>
<rscale>  2 0.46590255E+03</rscale>
<asrwt>0</asrwt>
<pdfrwt beam="1">  1       21 0.11931833E-01 0.46590255E+03</pdfrwt>
<pdfrwt beam="2">  1       21 0.98356979E-01 0.46590255E+03</pdfrwt>
<totfact> 0.46185998E+04</totfact>
</mgrwt>
</event>
<event>
 6    0  0.1539497E-004  0.4045955E+03  0.7546771E-02  0.1042200E+00
         21   -1    0    0  502  501  0.00000000000E+00  0.00000000000E+00  0.14357205875E+03  0.14357205875E+03  0.00000000000E+00 0. -1.
         21   -1    0    0  501  502 -0.00000000000E+00 -0.00000000000E+00 -0.28504421035E+03  0.28504421035E+03  0.00000000000E+00 0. -1.
      99925    2    1    2    0    0 -0.51862808879E+02  0.10102377194E+02 -0.83744697953E+02  0.28106364807E+03  0.26304332506E+03 0.  0.
         25    1    3    3    0    0 -0.28468781586E+02 -0.18325082531E+02 -0.70426436198E+01  0.12978207543E+03  0.12509000000E+03 0.  0.
         25    1    3    3    0    0 -0.23394027293E+02  0.28427459726E+02 -0.76702054333E+02  0.15128157263E+03  0.12509000000E+03 0.  0.
         25    1    1    2    0    0  0.51862808879E+02 -0.10102377194E+02 -0.57727453639E+02  0.14755262103E+03  0.12509000000E+03 0.  0.
<mgrwt>
<rscale>  2 0.40459552E+03</rscale>
<asrwt>0</asrwt>
<pdfrwt beam="1">  1       21 0.21113538E-01 0.40459552E+03</pdfrwt>
<pdfrwt beam="2">  1       21 0.41918266E-01 0.40459552E+03</pdfrwt>
<totfact> 0.10767737E+05</totfact>
</mgrwt>
</event>
<event>
 6    0  0.1539497E-004  0.4296439E+03  0.7546771E-02  0.1033973E+00
         21   -1    0    0  502  501  0.00000000000E+00  0.00000000000E+00  0.17812121700E+03  0.17812121700E+03  0.00000000000E+00 0.  1.
         21   -1    0    0  501  502 -0.00000000000E+00 -0.00000000000E+00 -0.25908458943E+03  0.25908458943E+03  0.00000000000E+00 0.  1.
      99925    2    1    2    0    0 -0.56114378605E+02 -0.34870872631E+02 -0.11038026228E+03  0.29271475911E+03  0.26293217121E+03 0.  0.
         25    1    1    2    0    0  0.56114378605E+02  0.34870872631E+02  0.29416889849E+02  0.14449104731E+03  0.12509000000E+03 0.  0.
         25    1    3    3    0    0  0.40064556247E+01 -0.28692087419E+02 -0.28743161314E+02  0.13157874064E+03  0.12509000000E+03 0.  0.
         25    1    3    3    0    0 -0.60120834230E+02 -0.61787852120E+01 -0.81637100962E+02  0.16113601847E+03  0.12509000000E+03 0.  0.
<mgrwt>
<rscale>  2 0.42964386E+03</rscale>
<asrwt>0</asrwt>
<pdfrwt beam="1">  1       21 0.26194297E-01 0.42964386E+03</pdfrwt>
<pdfrwt beam="2">  1       21 0.38100674E-01 0.42964386E+03</pdfrwt>
<totfact> 0.85983921E+04</totfact>
</mgrwt>
</event>
<event>
 6    0  0.1539497E-004  0.3908535E+03  0.7546771E-02  0.1046994E+00
         21   -1    0    0  502  501  0.00000000000E+00  0.00000000000E+00  0.21311862810E+03  0.21311862810E+03  0.00000000000E+00 0.  1.
         21   -1    0    0  501  502 -0.00000000000E+00 -0.00000000000E+00 -0.17920359022E+03  0.17920359022E+03  0.00000000000E+00 0.  1.
      99925    2    1    2    0    0 -0.77948706737E+01 -0.18938710871E+02  0.16344890358E+02  0.26435482809E+03  0.26305300781E+03 0.  0.
         25    1    1    2    0    0  0.77948706737E+01  0.18938710871E+02  0.17570147530E+02  0.12796739023E+03  0.12509000000E+03 0.  0.
         25    1    3    3    0    0  0.19543309046E+02  0.10176488792E+01 -0.23510945220E+02  0.12877596508E+03  0.12509000000E+03 0.  0.
         25    1    3    3    0    0 -0.27338179719E+02 -0.19956359750E+02  0.39855835578E+02  0.13557886301E+03  0.12509000000E+03 0.  0.
<mgrwt>
<rscale>  2 0.39085354E+03</rscale>
<asrwt>0</asrwt>
<pdfrwt beam="1">  1       21 0.31340975E-01 0.39085354E+03</pdfrwt>
<pdfrwt beam="2">  1       21 0.26353469E-01 0.39085354E+03</pdfrwt>
<totfact> 0.12696923E+05</totfact>
</mgrwt>
</event>
<event>
 6    0  0.1539497E-004  0.3977608E+03  0.7546771E-02  0.1044558E+00
         21   -1    0    0  502  501  0.00000000000E+00  0.00000000000E+00  0.20570810312E+03  0.20570810312E+03  0.00000000000E+00 0.  1.
         21   -1    0    0  501  502 -0.00000000000E+00 -0.00000000000E+00 -0.19227934975E+03  0.19227934975E+03  0.00000000000E+00 0.  1.
      99925    2    1    2    0    0 -0.40624975082E+02 -0.57711842935E-01  0.50172245858E+01  0.26619726413E+03  0.26303121290E+03 0.  0.
         25    1    3    3    0    0  0.17089004436E+02 -0.35789477562E+01 -0.14032222966E+02  0.12707971640E+03  0.12509000000E+03 0.  0.
         25    1    1    2    0    0  0.40624975082E+02  0.57711842935E-01  0.84115287831E+01  0.13179018874E+03  0.12509000000E+03 0.  0.
         25    1    3    3    0    0 -0.57713979518E+02  0.35212359133E+01  0.19049447552E+02  0.13911754773E+03  0.12509000000E+03 0.  0.
<mgrwt>
<rscale>  2 0.39776083E+03</rscale>
<asrwt>0</asrwt>
<pdfrwt beam="1">  1       21 0.30251192E-01 0.39776083E+03</pdfrwt>
<pdfrwt beam="2">  1       21 0.28276375E-01 0.39776083E+03</pdfrwt>
<totfact> 0.11849796E+05</totfact>
</mgrwt>
</event>
<event>
 6    0  0.1539497E-004  0.4147233E+03  0.7546771E-02  0.1038797E+00
         21   -1    0    0  502  501  0.00000000000E+00  0.00000000000E+00  0.90778284613E+02  0.90778284613E+02  0.00000000000E+00 0. -1.
         21   -1    0    0  501  502 -0.00000000000E+00 -0.00000000000E+00 -0.47366889636E+03  0.47366889636E+03  0.00000000000E+00 0. -1.
      99925    2    1    2    0    0  0.50246335600E+02  0.46095951966E+02 -0.26548696436E+03  0.37983771332E+03  0.26295214238E+03 0.  0.
         25    1    3    3    0    0  0.13532263612E+02  0.82667679601E+01 -0.17875256985E+03  0.21874974500E+03  0.12509000000E+03 0.  0.
         25    1    3    3    0    0  0.36714071988E+02  0.37829184006E+02 -0.86734394507E+02  0.16108796831E+03  0.12509000000E+03 0.  0.
         25    1    1    2    0    0 -0.50246335600E+02 -0.46095951966E+02 -0.11740364739E+03  0.18460946766E+03  0.12509000000E+03 0.  0.
<mgrwt>
<rscale>  2 0.41472328E+03</rscale>
<asrwt>0</asrwt>
<pdfrwt beam="1">  1       21 0.13349748E-01 0.41472328E+03</pdfrwt>
<pdfrwt beam="2">  1       21 0.69657189E-01 0.41472328E+03</pdfrwt>
<totfact> 0.84902578E+04</totfact>
</mgrwt>
</event>
<event>
 6    0  0.1539497E-004  0.4453730E+03  0.7546771E-02  0.1029111E+00
         21   -1    0    0  502  501  0.00000000000E+00  0.00000000000E+00  0.12935201832E+04  0.12935201832E+04  0.00000000000E+00 0.  1.
         21   -1    0    0  501  502 -0.00000000000E+00 -0.00000000000E+00 -0.38336685757E+02  0.38336685757E+02  0.00000000000E+00 0.  1.
      99925    2    1    2    0    0  0.40070419559E+02 -0.95144216930E+02  0.76272533222E+03  0.81337773424E+03  0.26301206362E+03 0.  0.
         25    1    3    3    0    0  0.46119498230E+02 -0.17386195458E+02  0.39219589493E+03  0.41460151472E+03  0.12509000000E+03 0.  0.
         25    1    3    3    0    0 -0.60490786705E+01 -0.77758021472E+02  0.37052943729E+03  0.39877621952E+03  0.12509000000E+03 0.  0.
         25    1    1    2    0    0 -0.40070419559E+02  0.95144216930E+02  0.49245816518E+03  0.51847913468E+03  0.12509000000E+03 0.  0.
<mgrwt>
<rscale>  2 0.44537300E+03</rscale>
<asrwt>0</asrwt>
<pdfrwt beam="1">  1       21 0.19022353E+00 0.44537300E+03</pdfrwt>
<pdfrwt beam="2">  1       21 0.56377487E-02 0.44537300E+03</pdfrwt>
<totfact> 0.30417350E+04</totfact>
</mgrwt>
</event>
<event>
 6    0  0.1539497E-004  0.4076574E+03  0.7546771E-02  0.1041160E+00
         21   -1    0    0  502  501  0.00000000000E+00  0.00000000000E+00  0.68882431228E+02  0.68882431228E+02  0.00000000000E+00 0. -1.
         21   -1    0    0  501  502 -0.00000000000E+00 -0.00000000000E+00 -0.60314575724E+03  0.60314575724E+03  0.00000000000E+00 0. -1.
      99925    2    1    2    0    0 -0.14713674905E+02 -0.49316521766E+02 -0.30582320348E+03  0.40654559161E+03  0.26287425650E+03 0.  0.
         25    1    3    3    0    0 -0.33279705240E+02 -0.24786171920E+02 -0.10758092802E+03  0.17012659190E+03  0.12509000000E+03 0.  0.
         25    1    1    2    0    0  0.14713674905E+02  0.49316521766E+02 -0.22844012254E+03  0.26548259686E+03  0.12509000000E+03 0.  0.
         25    1    3    3    0    0  0.18566030335E+02 -0.24530349846E+02 -0.19824227546E+03  0.23641899971E+03  0.12509000000E+03 0.  0.
<mgrwt>
<rscale>  2 0.40765744E+03</rscale>
<asrwt>0</asrwt>
<pdfrwt beam="1">  1       21 0.10129769E-01 0.40765744E+03</pdfrwt>
<pdfrwt beam="2">  1       21 0.88697906E-01 0.40765744E+03</pdfrwt>
<totfact> 0.80532859E+04</totfact>
</mgrwt>
</event>
<event>
 6    0  0.1539497E-004  0.4508841E+03  0.7546771E-02  0.1027459E+00
         21   -1    0    0  502  501  0.00000000000E+00  0.00000000000E+00  0.25170912942E+03  0.25170912942E+03  0.00000000000E+00 0. -1.
         21   -1    0    0  501  502 -0.00000000000E+00 -0.00000000000E+00 -0.20191611072E+03  0.20191611072E+03  0.00000000000E+00 0. -1.
      99925    2    1    2    0    0 -0.90728916586E+02 -0.60206876712E+02  0.21665709229E+02  0.28541329661E+03  0.26293486383E+03 0.  0.
         25    1    1    2    0    0  0.90728916586E+02  0.60206876712E+02  0.28127309465E+02  0.16821194353E+03  0.12509000000E+03 0.  0.
         25    1    3    3    0    0 -0.39187027443E+02 -0.41640012906E+02  0.49256722556E+02  0.14609328051E+03  0.12509000000E+03 0.  0.
         25    1    3    3    0    0 -0.51541889143E+02 -0.18566863805E+02 -0.27591013326E+02  0.13932001609E+03  0.12509000000E+03 0.  0.
<mgrwt>
<rscale>  2 0.45088415E+03</rscale>
<asrwt>0</asrwt>
<pdfrwt beam="1">  1       21 0.37016049E-01 0.45088415E+03</pdfrwt>
<pdfrwt beam="2">  1       21 0.29693546E-01 0.45088415E+03</pdfrwt>
<totfact> 0.70947902E+04</totfact>
</mgrwt>
</event>
<event>
 6    0  0.1539497E-004  0.4294915E+03  0.7546771E-02  0.1034021E+00
         21   -1    0    0  502  501  0.00000000000E+00  0.00000000000E+00  0.23181389589E+03  0.23181389589E+03  0.00000000000E+00 0.  1.
         21   -1    0    0  501  502 -0.00000000000E+00 -0.00000000000E+00 -0.19893434805E+03  0.19893434805E+03  0.00000000000E+00 0.  1.
      99925    2    1    2    0    0 -0.16356866421E+02  0.32550301081E+02  0.10022398934E+03  0.28408587290E+03  0.26331134796E+03 0.  0.
         25    1    3    3    0    0 -0.47949271065E+02  0.25430543373E+02  0.57587477136E+02  0.14801915672E+03  0.12509000000E+03 0.  0.
         25    1    3    3    0    0  0.31592404644E+02  0.71197577079E+01  0.42636512201E+02  0.13606671619E+03  0.12509000000E+03 0.  0.
         25    1    1    2    0    0  0.16356866421E+02 -0.32550301081E+02 -0.67344441496E+02  0.14666237104E+03  0.12509000000E+03 0.  0.
<mgrwt>
<rscale>  2 0.42949154E+03</rscale>
<asrwt>0</asrwt>
<pdfrwt beam="1">  1       21 0.34090279E-01 0.42949154E+03</pdfrwt>
<pdfrwt beam="2">  1       21 0.29255051E-01 0.42949154E+03</pdfrwt>
<totfact> 0.86708971E+04</totfact>
</mgrwt>
</event>
<event>
 6    0  0.1539497E-004  0.7483502E+03  0.7546771E-02  0.9637942E-01
         21   -1    0    0  502  501  0.00000000000E+00  0.00000000000E+00  0.13304277422E+03  0.13304277422E+03  0.00000000000E+00 0. -1.
         21   -1    0    0  501  502 -0.00000000000E+00 -0.00000000000E+00 -0.10523458006E+04  0.10523458006E+04  0.00000000000E+00 0. -1.
      99925    2    1    2    0    0  0.95838058042E+02 -0.90709227657E+02 -0.51497035886E+02  0.29873878906E+03  0.26302057340E+03 0.  0.
         25    1    3    3    0    0  0.34165652357E+02 -0.80066371705E+02 -0.44187375706E+02  0.15867560604E+03  0.12509000000E+03 0.  0.
         25    1    1    2    0    0 -0.95838058042E+02  0.90709227657E+02 -0.86780599049E+03  0.88664978576E+03  0.12509000000E+03 0.  0.
         25    1    3    3    0    0  0.61672405685E+02 -0.10642855952E+02 -0.73096601805E+01  0.14006318302E+03  0.12509000000E+03 0.  0.
<mgrwt>
<rscale>  2 0.74835020E+03</rscale>
<asrwt>0</asrwt>
<pdfrwt beam="1">  1       21 0.19565113E-01 0.74835020E+03</pdfrwt>
<pdfrwt beam="2">  1       21 0.15475674E+00 0.74835020E+03</pdfrwt>
<totfact> 0.53369218E+03</totfact>
</mgrwt>
</event>
<event>
 6    0  0.1539497E-004  0.4090600E+03  0.7546771E-02  0.1040687E+00
         21   -1    0    0  502  501  0.00000000000E+00  0.00000000000E+00  0.83850731255E+03  0.83850731255E+03  0.00000000000E+00 0.  1.
         21   -1    0    0  501  502 -0.00000000000E+00 -0.00000000000E+00 -0.49889277591E+02  0.49889277591E+02  0.00000000000E+00 0.  1.
      99925    2    1    2    0    0  0.19358746066E+01 -0.60732218333E+02  0.51184005567E+03  0.57864554838E+03  0.26297961540E+03 0.  0.
         25    1    3    3    0    0  0.40992056283E+02 -0.36245728508E+02  0.25285152615E+03  0.28735953767E+03  0.12509000000E+03 0.  0.
         25    1    1    2    0    0 -0.19358746066E+01  0.60732218333E+02  0.27677797929E+03  0.30975104177E+03  0.12509000000E+03 0.  0.
         25    1    3    3    0    0 -0.39056181676E+02 -0.24486489825E+02  0.25898852952E+03  0.29128601071E+03  0.12509000000E+03 0.  0.
<mgrwt>
<rscale>  2 0.40906002E+03</rscale>
<asrwt>0</asrwt>
<pdfrwt beam="1">  1       21 0.12330989E+00 0.40906002E+03</pdfrwt>
<pdfrwt beam="2">  1       21 0.73366590E-02 0.40906002E+03</pdfrwt>
<totfact> 0.63757722E+04</totfact>
</mgrwt>
</event>
<event>
 6    0  0.1539497E-004  0.4522691E+03  0.7546771E-02  0.1027048E+00
         21   -1    0    0  502  501  0.00000000000E+00  0.00000000000E+00  0.59518483838E+02  0.59518483838E+02  0.00000000000E+00 0.  1.
         21   -1    0    0  501  502 -0.00000000000E+00 -0.00000000000E+00 -0.85917585212E+03  0.85917585212E+03  0.00000000000E+00 0.  1.
      99925    2    1    2    0    0  0.16490276381E+02  0.10935854995E+03 -0.49376471927E+03  0.57019893788E+03  0.26285358872E+03 0.  0.
         25    1    1    2    0    0 -0.16490276381E+02 -0.10935854995E+03 -0.30589264902E+03  0.34849539808E+03  0.12509000000E+03 0.  0.
         25    1    3    3    0    0  0.31983533053E+02  0.77797871919E+02 -0.21432979987E+03  0.26203096472E+03  0.12509000000E+03 0.  0.
         25    1    3    3    0    0 -0.15493256672E+02  0.31560678027E+02 -0.27943491940E+03  0.30816797315E+03  0.12509000000E+03 0.  0.
<mgrwt>
<rscale>  2 0.45226914E+03</rscale>
<asrwt>0</asrwt>
<pdfrwt beam="1">  1       21 0.87527184E-02 0.45226914E+03</pdfrwt>
<pdfrwt beam="2">  1       21 0.12634939E+00 0.45226914E+03</pdfrwt>
<totfact> 0.43353987E+04</totfact>
</mgrwt>
</event>
<event>
 6    0  0.1539497E-004  0.4042065E+03  0.7546771E-02  0.1042333E+00
         21   -1    0    0  502  501  0.00000000000E+00  0.00000000000E+00  0.17473393716E+02  0.17473393716E+02  0.00000000000E+00 0.  1.
         21   -1    0    0  501  502 -0.00000000000E+00 -0.00000000000E+00 -0.23375953081E+04  0.23375953081E+04  0.00000000000E+00 0.  1.
      99925    2    1    2    0    0 -0.41291086519E+02  0.33397752650E+02 -0.15279746497E+04  0.15513491234E+04  0.26297758230E+03 0.  0.
         25    1    1    2    0    0  0.41291086519E+02 -0.33397752650E+02 -0.79214726469E+03  0.80371957843E+03  0.12509000000E+03 0.  0.
         25    1    3    3    0    0 -0.21657484172E+02  0.57331712876E+02 -0.76989139333E+03  0.78239135830E+03  0.12509000000E+03 0.  0.
         25    1    3    3    0    0 -0.19633602347E+02 -0.23933960226E+02 -0.75808325636E+03  0.76895776507E+03  0.12509000000E+03 0.  0.
<mgrwt>
<rscale>  2 0.40420650E+03</rscale>
<asrwt>0</asrwt>
<pdfrwt beam="1">  1       21 0.25696162E-02 0.40420650E+03</pdfrwt>
<pdfrwt beam="2">  1       21 0.34376408E+00 0.40420650E+03</pdfrwt>
<totfact> 0.13235567E+04</totfact>
</mgrwt>
</event>
<event>
 6    0  0.1539497E-004  0.9458201E+03  0.7546771E-02  0.9370050E-01
         21   -1    0    0  502  501  0.00000000000E+00  0.00000000000E+00  0.23587763274E+04  0.23587763274E+04  0.00000000000E+00 0.  1.
         21   -1    0    0  501  502 -0.00000000000E+00 -0.00000000000E+00 -0.94813522787E+02  0.94813522787E+02  0.00000000000E+00 0.  1.
      99925    2    1    2    0    0  0.36078169786E+03 -0.15785518663E+03  0.16260464233E+04  0.16935460941E+04  0.26265892109E+03 0.  0.
         25    1    1    2    0    0 -0.36078169786E+03  0.15785518663E+03  0.63791638135E+03  0.76004375607E+03  0.12509000000E+03 0.  0.
         25    1    3    3    0    0  0.12012256262E+03 -0.74524974469E+02  0.60019222101E+03  0.62917534292E+03  0.12509000000E+03 0.  0.
         25    1    3    3    0    0  0.24065913523E+03 -0.83330212161E+02  0.10258542023E+04  0.10643707512E+04  0.12509000000E+03 0.  0.
<mgrwt>
<rscale>  2 0.94582005E+03</rscale>
<asrwt>0</asrwt>
<pdfrwt beam="1">  1       21 0.34687883E+00 0.94582005E+03</pdfrwt>
<pdfrwt beam="2">  1       21 0.13943167E-01 0.94582005E+03</pdfrwt>
<totfact> 0.53318808E+02</totfact>
</mgrwt>
</event>
<event>
 6    0  0.1539497E-004  0.4192655E+03  0.7546771E-02  0.1037306E+00
         21   -1    0    0  502  501  0.00000000000E+00  0.00000000000E+00  0.10131563847E+03  0.10131563847E+03  0.00000000000E+00 0. -1.
         21   -1    0    0  501  502 -0.00000000000E+00 -0.00000000000E+00 -0.43375222947E+03  0.43375222947E+03  0.00000000000E+00 0. -1.
      99925    2    1    2    0    0  0.33102715800E+02  0.50391711673E+02 -0.15997094066E+03  0.31364740131E+03  0.26296173884E+03 0.  0.
         25    1    3    3    0    0 -0.82627819683E+01  0.31735450353E+02 -0.11538294113E+03  0.17330938688E+03  0.12509000000E+03 0.  0.
         25    1    3    3    0    0  0.41365497768E+02  0.18656261320E+02 -0.44587999525E+02  0.14033801443E+03  0.12509000000E+03 0.  0.
         25    1    1    2    0    0 -0.33102715800E+02 -0.50391711673E+02 -0.17246565033E+03  0.22142046663E+03  0.12509000000E+03 0.  0.
<mgrwt>
<rscale>  2 0.41926547E+03</rscale>
<asrwt>0</asrwt>
<pdfrwt beam="1">  1       21 0.14899359E-01 0.41926547E+03</pdfrwt>
<pdfrwt beam="2">  1       21 0.63787093E-01 0.41926547E+03</pdfrwt>
<totfact> 0.84293188E+04</totfact>
</mgrwt>
</event>
<event>
 6    0  0.1539497E-004  0.4586596E+03  0.7546771E-02  0.1025171E+00
         21   -1    0    0  502  501  0.00000000000E+00  0.00000000000E+00  0.33444009586E+03  0.33444009586E+03  0.00000000000E+00 0.  1.
         21   -1    0    0  501  502 -0.00000000000E+00 -0.00000000000E+00 -0.15725435740E+03  0.15725435740E+03  0.00000000000E+00 0.  1.
      99925    2    1    2    0    0  0.44661993000E+02 -0.95864046318E+02  0.16357291485E+03  0.32732466875E+03  0.26306031875E+03 0.  0.
         25    1    1    2    0    0 -0.44661993000E+02  0.95864046318E+02  0.13612823609E+02  0.16436978452E+03  0.12509000000E+03 0.  0.
         25    1    3    3    0    0  0.59828917727E+02 -0.32218291414E+02  0.82254633716E+02  0.16441061573E+03  0.12509000000E+03 0.  0.
         25    1    3    3    0    0 -0.15166924727E+02 -0.63645754904E+02  0.81318281139E+02  0.16291405302E+03  0.12509000000E+03 0.  0.
<mgrwt>
<rscale>  2 0.45865962E+03</rscale>
<asrwt>0</asrwt>
<pdfrwt beam="1">  1       21 0.49182367E-01 0.45865962E+03</pdfrwt>
<pdfrwt beam="2">  1       21 0.23125641E-01 0.45865962E+03</pdfrwt>
<totfact> 0.63979124E+04</totfact>
</mgrwt>
</event>
<event>
 6    0  0.1539497E-004  0.4087640E+03  0.7546771E-02  0.1040787E+00
         21   -1    0    0  502  501  0.00000000000E+00  0.00000000000E+00  0.14040375154E+03  0.14040375154E+03  0.00000000000E+00 0. -1.
         21   -1    0    0  501  502 -0.00000000000E+00 -0.00000000000E+00 -0.29751350162E+03  0.29751350162E+03  0.00000000000E+00 0. -1.
      99925    2    1    2    0    0 -0.39262107301E+02  0.31132126170E+01 -0.15275373229E+03  0.30670106455E+03  0.26302211905E+03 0.  0.
         25    1    3    3    0    0 -0.15148346416E+02  0.34615266351E+01 -0.12248740170E+03  0.17576156076E+03  0.12509000000E+03 0.  0.
         25    1    1    2    0    0  0.39262107301E+02 -0.31132126170E+01 -0.43560177840E+01  0.13121618861E+03  0.12509000000E+03 0.  0.
         25    1    3    3    0    0 -0.24113760885E+02 -0.34831401805E+00 -0.30266330595E+02  0.13093950380E+03  0.12509000000E+03 0.  0.
<mgrwt>
<rscale>  2 0.40876405E+03</rscale>
<asrwt>0</asrwt>
<pdfrwt beam="1">  1       21 0.20647611E-01 0.40876405E+03</pdfrwt>
<pdfrwt beam="2">  1       21 0.43751985E-01 0.40876405E+03</pdfrwt>
<totfact> 0.10271830E+05</totfact>
</mgrwt>
</event>
<event>
 6    0  0.1539497E-004  0.5709294E+03  0.7546771E-02  0.9967624E-01
         21   -1    0    0  502  501  0.00000000000E+00  0.00000000000E+00  0.10793949256E+03  0.10793949256E+03  0.00000000000E+00 0. -1.
         21   -1    0    0  501  502 -0.00000000000E+00 -0.00000000000E+00 -0.75496090740E+03  0.75496090740E+03  0.00000000000E+00 0. -1.
      99925    2    1    2    0    0 -0.37179996760E+02 -0.13186877340E+02 -0.75458843024E+02  0.27648115787E+03  0.26304286300E+03 0.  0.
         25    1    1    2    0    0  0.37179996760E+02  0.13186877340E+02 -0.57156257181E+03  0.58641924209E+03  0.12509000000E+03 0.  0.
         25    1    3    3    0    0  0.90158054576E+01 -0.59576133254E+01 -0.67862071433E+02  0.14272192103E+03  0.12509000000E+03 0.  0.
         25    1    3    3    0    0 -0.46195802218E+02 -0.72292640144E+01 -0.75967715916E+01  0.13375923684E+03  0.12509000000E+03 0.  0.
<mgrwt>
<rscale>  2 0.57092941E+03</rscale>
<asrwt>0</asrwt>
<pdfrwt beam="1">  1       21 0.15873455E-01 0.57092941E+03</pdfrwt>
<pdfrwt beam="2">  1       21 0.11102366E+00 0.57092941E+03</pdfrwt>
<totfact> 0.19761481E+04</totfact>
</mgrwt>
</event>
<event>
 6    0  0.1539497E-004  0.4191210E+03  0.7546771E-02  0.1037353E+00
         21   -1    0    0  502  501  0.00000000000E+00  0.00000000000E+00  0.45701444205E+02  0.45701444205E+02  0.00000000000E+00 0.  1.
         21   -1    0    0  501  502 -0.00000000000E+00 -0.00000000000E+00 -0.96092386351E+03  0.96092386351E+03  0.00000000000E+00 0.  1.
      99925    2    1    2    0    0  0.34604063920E+02 -0.66260334994E+02 -0.59275936766E+03  0.65276403404E+03  0.26296262652E+03 0.  0.
         25    1    3    3    0    0 -0.15270443561E+02 -0.54540951421E+02 -0.32501975022E+03  0.35283600718E+03  0.12509000000E+03 0.  0.
         25    1    3    3    0    0  0.49874507481E+02 -0.11719383573E+02 -0.26773961744E+03  0.29992802686E+03  0.12509000000E+03 0.  0.
         25    1    1    2    0    0 -0.34604063920E+02  0.66260334994E+02 -0.32246305164E+03  0.35386127368E+03  0.12509000000E+03 0.  0.
<mgrwt>
<rscale>  2 0.41912102E+03</rscale>
<asrwt>0</asrwt>
<pdfrwt beam="1">  1       21 0.67208003E-02 0.41912102E+03</pdfrwt>
<pdfrwt beam="2">  1       21 0.14131234E+00 0.41912102E+03</pdfrwt>
<totfact> 0.52029511E+04</totfact>
</mgrwt>
</event>
<event>
 6    0  0.1539497E-004  0.4007823E+03  0.7546771E-02  0.1043509E+00
         21   -1    0    0  502  501  0.00000000000E+00  0.00000000000E+00  0.17262184196E+03  0.17262184196E+03  0.00000000000E+00 0.  1.
         21   -1    0    0  501  502 -0.00000000000E+00 -0.00000000000E+00 -0.23262766511E+03  0.23262766511E+03  0.00000000000E+00 0.  1.
      99925    2    1    2    0    0 -0.15821926106E+02  0.26249236921E+02 -0.75834928557E+02  0.27549040541E+03  0.26306780742E+03 0.  0.
         25    1    3    3    0    0  0.52147979952E+01  0.51325292066E+02 -0.44577364920E+02  0.14246448430E+03  0.12509000000E+03 0.  0.
         25    1    1    2    0    0  0.15821926106E+02 -0.26249236921E+02  0.15829105408E+02  0.12975910166E+03  0.12509000000E+03 0.  0.
         25    1    3    3    0    0 -0.21036724101E+02 -0.25076055145E+02 -0.31257563636E+02  0.13302592111E+03  0.12509000000E+03 0.  0.
<mgrwt>
<rscale>  2 0.40078232E+03</rscale>
<asrwt>0</asrwt>
<pdfrwt beam="1">  1       21 0.25385565E-01 0.40078232E+03</pdfrwt>
<pdfrwt beam="2">  1       21 0.34209951E-01 0.40078232E+03</pdfrwt>
<totfact> 0.11437629E+05</totfact>
</mgrwt>
</event>
<event>
 6    0  0.1539497E-004  0.4283281E+03  0.7546771E-02  0.1034389E+00
         21   -1    0    0  502  501  0.00000000000E+00  0.00000000000E+00  0.57189320433E+03  0.57189320433E+03  0.00000000000E+00 0.  1.
         21   -1    0    0  501  502 -0.00000000000E+00 -0.00000000000E+00 -0.80200719755E+02  0.80200719755E+02  0.00000000000E+00 0.  1.
      99925    2    1    2    0    0 -0.47603602624E+02  0.70526336808E+02  0.30049585927E+03  0.40828308594E+03  0.26297766001E+03 0.  0.
         25    1    1    2    0    0  0.47603602624E+02 -0.70526336808E+02  0.19119662530E+03  0.24381083814E+03  0.12509000000E+03 0.  0.
         25    1    3    3    0    0 -0.43354894080E+02  0.31871953058E+01  0.16854431185E+03  0.21434667763E+03  0.12509000000E+03 0.  0.
         25    1    3    3    0    0 -0.42487085444E+01  0.67339141502E+02  0.13195154742E+03  0.19393640831E+03  0.12509000000E+03 0.  0.
<mgrwt>
<rscale>  2 0.42832813E+03</rscale>
<asrwt>0</asrwt>
<pdfrwt beam="1">  1       21 0.84101939E-01 0.42832813E+03</pdfrwt>
<pdfrwt beam="2">  1       21 0.11794224E-01 0.42832813E+03</pdfrwt>
<totfact> 0.68979407E+04</totfact>
</mgrwt>
</event>
<event>
 6    0  0.1539497E-004  0.4046921E+03  0.7546771E-02  0.1042167E+00
         21   -1    0    0  502  501  0.00000000000E+00  0.00000000000E+00  0.91320847558E+03  0.91320847558E+03  0.00000000000E+00 0.  1.
         21   -1    0    0  501  502 -0.00000000000E+00 -0.00000000000E+00 -0.44835243539E+02  0.44835243539E+02  0.00000000000E+00 0.  1.
      99925    2    1    2    0    0  0.82573935672E+01 -0.47408026892E+02  0.51874133173E+03  0.58360323068E+03  0.26302938250E+03 0.  0.
         25    1    3    3    0    0 -0.53106107492E+01 -0.52508471269E+02  0.20882158854E+03  0.24907690796E+03  0.12509000000E+03 0.  0.
         25    1    1    2    0    0 -0.82573935672E+01  0.47408026892E+02  0.34963190032E+03  0.37444048844E+03  0.12509000000E+03 0.  0.
         25    1    3    3    0    0  0.13568004316E+02  0.51004443776E+01  0.30991974319E+03  0.33452632272E+03  0.12509000000E+03 0.  0.
<mgrwt>
<rscale>  2 0.40469210E+03</rscale>
<asrwt>0</asrwt>
<pdfrwt beam="1">  1       21 0.13429535E+00 0.40469210E+03</pdfrwt>
<pdfrwt beam="2">  1       21 0.65934187E-02 0.40469210E+03</pdfrwt>
<totfact> 0.61765382E+04</totfact>
</mgrwt>
</event>
<event>
 6    0  0.1539497E-004  0.3910103E+03  0.7546771E-02  0.1046938E+00
         21   -1    0    0  502  501  0.00000000000E+00  0.00000000000E+00  0.59316720480E+03  0.59316720480E+03  0.00000000000E+00 0.  1.
         21   -1    0    0  501  502 -0.00000000000E+00 -0.00000000000E+00 -0.64437587550E+02  0.64437587550E+02  0.00000000000E+00 0.  1.
      99925    2    1    2    0    0 -0.11960866288E+02 -0.17811374605E+02  0.34736514974E+03  0.43624335587E+03  0.26303119757E+03 0.  0.
         25    1    3    3    0    0 -0.33268569406E+02 -0.37618505001E+02  0.16219182087E+03  0.21089249509E+03  0.12509000000E+03 0.  0.
         25    1    3    3    0    0  0.21307703119E+02  0.19807130396E+02  0.18517332887E+03  0.22535086077E+03  0.12509000000E+03 0.  0.
         25    1    1    2    0    0  0.11960866288E+02  0.17811374605E+02  0.18136446751E+03  0.22136143649E+03  0.12509000000E+03 0.  0.
<mgrwt>
<rscale>  2 0.39101030E+03</rscale>
<asrwt>0</asrwt>
<pdfrwt beam="1">  1       21 0.87230468E-01 0.39101030E+03</pdfrwt>
<pdfrwt beam="2">  1       21 0.94761161E-02 0.39101030E+03</pdfrwt>
<totfact> 0.94744742E+04</totfact>
</mgrwt>
</event>
<event>
 6    0  0.1539497E-004  0.4167008E+03  0.7546771E-02  0.1038145E+00
         21   -1    0    0  502  501  0.00000000000E+00  0.00000000000E+00  0.96261832543E+03  0.96261832543E+03  0.00000000000E+00 0.  1.
         21   -1    0    0  501  502 -0.00000000000E+00 -0.00000000000E+00 -0.45095630662E+02  0.45095630662E+02  0.00000000000E+00 0.  1.
      99925    2    1    2    0    0  0.74573457248E+01  0.64150989776E+02  0.52498775035E+03  0.59069818639E+03  0.26294723404E+03 0.  0.
         25    1    3    3    0    0 -0.33077472565E+02  0.17878582761E+02  0.27590107870E+03  0.30525837620E+03  0.12509000000E+03 0.  0.
         25    1    3    3    0    0  0.40534818290E+02  0.46272407015E+02  0.24908667165E+03  0.28543981019E+03  0.12509000000E+03 0.  0.
         25    1    1    2    0    0 -0.74573457248E+01 -0.64150989776E+02  0.39253494441E+03  0.41701576970E+03  0.12509000000E+03 0.  0.
<mgrwt>
<rscale>  2 0.41670076E+03</rscale>
<asrwt>0</asrwt>
<pdfrwt beam="1">  1       21 0.14156151E+00 0.41670076E+03</pdfrwt>
<pdfrwt beam="2">  1       21 0.66317110E-02 0.41670076E+03</pdfrwt>
<totfact> 0.53043707E+04</totfact>
</mgrwt>
</event>
<event>
 6    0  0.1539497E-004  0.4194633E+03  0.7546771E-02  0.1037241E+00
         21   -1    0    0  502  501  0.00000000000E+00  0.00000000000E+00  0.98670674016E+02  0.98670674016E+02  0.00000000000E+00 0. -1.
         21   -1    0    0  501  502 -0.00000000000E+00 -0.00000000000E+00 -0.44579967624E+03  0.44579967624E+03  0.00000000000E+00 0. -1.
      99925    2    1    2    0    0  0.15884224702E+02 -0.73154269874E+02 -0.22398151603E+03  0.35363883491E+03  0.26322775354E+03 0.  0.
         25    1    3    3    0    0 -0.13900742079E+02 -0.34817081067E+02 -0.65850163910E+02  0.14625051094E+03  0.12509000000E+03 0.  0.
         25    1    3    3    0    0  0.29784966781E+02 -0.38337188807E+02 -0.15813135212E+03  0.20738832396E+03  0.12509000000E+03 0.  0.
         25    1    1    2    0    0 -0.15884224702E+02  0.73154269874E+02 -0.12314748619E+03  0.19083151535E+03  0.12509000000E+03 0.  0.
<mgrwt>
<rscale>  2 0.41946325E+03</rscale>
<asrwt>0</asrwt>
<pdfrwt beam="1">  1       21 0.14510393E-01 0.41946325E+03</pdfrwt>
<pdfrwt beam="2">  1       21 0.65558776E-01 0.41946325E+03</pdfrwt>
<totfact> 0.83300627E+04</totfact>
</mgrwt>
</event>
<event>
 6    0  0.1539497E-004  0.4101246E+03  0.7546771E-02  0.1040329E+00
         21   -1    0    0  502  501  0.00000000000E+00  0.00000000000E+00  0.11407957102E+03  0.11407957102E+03  0.00000000000E+00 0.  1.
         21   -1    0    0  501  502 -0.00000000000E+00 -0.00000000000E+00 -0.36860718455E+03  0.36860718455E+03  0.00000000000E+00 0.  1.
      99925    2    1    2    0    0 -0.37526385488E+02 -0.49287413175E+02 -0.17239476592E+03  0.32072752779E+03  0.26326548019E+03 0.  0.
         25    1    1    2    0    0  0.37526385488E+02  0.49287413175E+02 -0.82132847606E+02  0.16195922777E+03  0.12509000000E+03 0.  0.
         25    1    3    3    0    0 -0.34097029610E+02 -0.33516384814E+02 -0.44533339998E+02  0.14112647502E+03  0.12509000000E+03 0.  0.
         25    1    3    3    0    0 -0.34293558779E+01 -0.15771028361E+02 -0.12786142592E+03  0.17960105277E+03  0.12509000000E+03 0.  0.
<mgrwt>
<rscale>  2 0.41012461E+03</rscale>
<asrwt>0</asrwt>
<pdfrwt beam="1">  1       21 0.16776407E-01 0.41012461E+03</pdfrwt>
<pdfrwt beam="2">  1       21 0.54206939E-01 0.41012461E+03</pdfrwt>
<totfact> 0.96570379E+04</totfact>
</mgrwt>
</event>
<event>
 6    0  0.1539497E-004  0.3943015E+03  0.7546771E-02  0.1045771E+00
         21   -1    0    0  502  501  0.00000000000E+00  0.00000000000E+00  0.49169357058E+02  0.49169357058E+02  0.00000000000E+00 0. -1.
         21   -1    0    0  501  502 -0.00000000000E+00 -0.00000000000E+00 -0.79050066175E+03  0.79050066175E+03  0.00000000000E+00 0. -1.
      99925    2    1    2    0    0 -0.10906601949E+02 -0.20371731956E+02 -0.54820500649E+03  0.60841423707E+03  0.26287866650E+03 0.  0.
         25    1    1    2    0    0  0.10906601949E+02  0.20371731956E+02 -0.19312629820E+03  0.23125578173E+03  0.12509000000E+03 0.  0.
         25    1    3    3    0    0  0.13284129139E+01 -0.49977736371E+02 -0.28608725553E+03  0.31621664202E+03  0.12509000000E+03 0.  0.
         25    1    3    3    0    0 -0.12235014863E+02  0.29606004415E+02 -0.26211775096E+03  0.29219759505E+03  0.12509000000E+03 0.  0.
<mgrwt>
<rscale>  2 0.39430145E+03</rscale>
<asrwt>0</asrwt>
<pdfrwt beam="1">  1       21 0.72307876E-02 0.39430145E+03</pdfrwt>
<pdfrwt beam="2">  1       21 0.11625010E+00 0.39430145E+03</pdfrwt>
<totfact> 0.76214169E+04</totfact>
</mgrwt>
</event>
<event>
 6    0  0.1539497E-004  0.4063236E+03  0.7546771E-02  0.1041612E+00
         21   -1    0    0  502  501  0.00000000000E+00  0.00000000000E+00  0.41526941168E+03  0.41526941168E+03  0.00000000000E+00 0. -1.
         21   -1    0    0  501  502 -0.00000000000E+00 -0.00000000000E+00 -0.99392607008E+02  0.99392607008E+02  0.00000000000E+00 0. -1.
      99925    2    1    2    0    0 -0.41151156029E+02 -0.27450381908E+02  0.24387230966E+03  0.36208713048E+03  0.26303316432E+03 0.  0.
         25    1    3    3    0    0 -0.14297075114E+01 -0.17995691688E+00  0.72756084665E+02  0.14471707710E+03  0.12509000000E+03 0.  0.
         25    1    1    2    0    0  0.41151156029E+02  0.27450381908E+02  0.72004495015E+02  0.15257488821E+03  0.12509000000E+03 0.  0.
         25    1    3    3    0    0 -0.39721448517E+02 -0.27270424991E+02  0.17111622499E+03  0.21737005338E+03  0.12509000000E+03 0.  0.
<mgrwt>
<rscale>  2 0.40632356E+03</rscale>
<asrwt>0</asrwt>
<pdfrwt beam="1">  1       21 0.61069031E-01 0.40632356E+03</pdfrwt>
<pdfrwt beam="2">  1       21 0.14616560E-01 0.40632356E+03</pdfrwt>
<totfact> 0.96384366E+04</totfact>
</mgrwt>
</event>
<event>
 6    0  0.1539497E-004  0.4527396E+03  0.7546771E-02  0.1026908E+00
         21   -1    0    0  502  501  0.00000000000E+00  0.00000000000E+00  0.23234183228E+03  0.23234183228E+03  0.00000000000E+00 0.  1.
         21   -1    0    0  501  502 -0.00000000000E+00 -0.00000000000E+00 -0.22055131445E+03  0.22055131445E+03  0.00000000000E+00 0.  1.
      99925    2    1    2    0    0 -0.80204160011E+02 -0.51536784190E+02 -0.49264025426E+02  0.28418063161E+03  0.26314053236E+03 0.  0.
         25    1    3    3    0    0 -0.37483748301E+02  0.14652947094E+02 -0.32802130034E+02  0.13543717392E+03  0.12509000000E+03 0.  0.
         25    1    1    2    0    0  0.80204160011E+02  0.51536784190E+02  0.61054543261E+02  0.16871251513E+03  0.12509000000E+03 0.  0.
         25    1    3    3    0    0 -0.42720411710E+02 -0.66189731284E+02 -0.16461895392E+02  0.14874345768E+03  0.12509000000E+03 0.  0.
<mgrwt>
<rscale>  2 0.45273964E+03</rscale>
<asrwt>0</asrwt>
<pdfrwt beam="1">  1       21 0.34167917E-01 0.45273964E+03</pdfrwt>
<pdfrwt beam="2">  1       21 0.32434017E-01 0.45273964E+03</pdfrwt>
<totfact> 0.69953563E+04</totfact>
</mgrwt>
</event>
<event>
 6    0  0.1539497E-004  0.4463785E+03  0.7546771E-02  0.1028808E+00
         21   -1    0    0  502  501  0.00000000000E+00  0.00000000000E+00  0.87276809488E+02  0.87276809488E+02  0.00000000000E+00 0. -1.
         21   -1    0    0  501  502 -0.00000000000E+00 -0.00000000000E+00 -0.57075230458E+03  0.57075230458E+03  0.00000000000E+00 0. -1.
      99925    2    1    2    0    0  0.85694532601E+02 -0.57393869405E+01 -0.39345619529E+03  0.48159930956E+03  0.26410911360E+03 0.  0.
         25    1    3    3    0    0  0.52101021327E+02  0.16072548417E+02 -0.13644425141E+03  0.19296990718E+03  0.12509000000E+03 0.  0.
         25    1    1    2    0    0 -0.85694532601E+02  0.57393869405E+01 -0.90019299811E+02  0.17642980451E+03  0.12509000000E+03 0.  0.
         25    1    3    3    0    0  0.33593511274E+02 -0.21811935358E+02 -0.25701194388E+03  0.28862940238E+03  0.12509000000E+03 0.  0.
<mgrwt>
<rscale>  2 0.44637849E+03</rscale>
<asrwt>0</asrwt>
<pdfrwt beam="1">  1       21 0.12834826E-01 0.44637849E+03</pdfrwt>
<pdfrwt beam="2">  1       21 0.83934158E-01 0.44637849E+03</pdfrwt>
<totfact> 0.59161288E+04</totfact>
</mgrwt>
</event>
<event>
 6    0  0.1539497E-004  0.4218808E+03  0.7546771E-02  0.1036456E+00
         21   -1    0    0  502  501  0.00000000000E+00  0.00000000000E+00  0.29246219177E+03  0.29246219177E+03  0.00000000000E+00 0.  1.
         21   -1    0    0  501  502 -0.00000000000E+00 -0.00000000000E+00 -0.15214226515E+03  0.15214226515E+03  0.00000000000E+00 0.  1.
      99925    2    1    2    0    0  0.58454823589E+02 -0.41927709909E+02  0.58819597983E+02  0.27887965211E+03  0.26294337032E+03 0.  0.
         25    1    1    2    0    0 -0.58454823589E+02  0.41927709909E+02  0.81500328637E+02  0.16572480480E+03  0.12509000000E+03 0.  0.
         25    1    3    3    0    0  0.68022089733E+02 -0.22927337453E+02  0.16703862475E+02  0.14518675772E+03  0.12509000000E+03 0.  0.
         25    1    3    3    0    0 -0.95672661441E+01 -0.19000372456E+02  0.42115735508E+02  0.13369289440E+03  0.12509000000E+03 0.  0.
<mgrwt>
<rscale>  2 0.42188084E+03</rscale>
<asrwt>0</asrwt>
<pdfrwt beam="1">  1       21 0.43009146E-01 0.42188084E+03</pdfrwt>
<pdfrwt beam="2">  1       21 0.22373863E-01 0.42188084E+03</pdfrwt>
<totfact> 0.91043460E+04</totfact>
</mgrwt>
</event>
<event>
 6    0  0.1539497E-004  0.4099251E+03  0.7546771E-02  0.1040396E+00
         21   -1    0    0  502  501  0.00000000000E+00  0.00000000000E+00  0.11364878723E+04  0.11364878723E+04  0.00000000000E+00 0. -1.
         21   -1    0    0  501  502 -0.00000000000E+00 -0.00000000000E+00 -0.36964444420E+02  0.36964444420E+02  0.00000000000E+00 0. -1.
      99925    2    1    2    0    0  0.25458762907E+02 -0.55140083590E+02  0.76013606239E+03  0.80668281229E+03  0.26313826950E+03 0.  0.
         25    1    3    3    0    0  0.53256144729E+02 -0.29120348050E+02  0.40944080962E+03  0.43240432040E+03  0.12509000000E+03 0.  0.
         25    1    1    2    0    0 -0.25458762907E+02  0.55140083590E+02  0.33938736552E+03  0.36676950446E+03  0.12509000000E+03 0.  0.
         25    1    3    3    0    0 -0.27797381822E+02 -0.26019735540E+02  0.35069525277E+03  0.37427849189E+03  0.12509000000E+03 0.  0.
<mgrwt>
<rscale>  2 0.40992508E+03</rscale>
<asrwt>0</asrwt>
<pdfrwt beam="1">  1       21 0.16713055E+00 0.40992508E+03</pdfrwt>
<pdfrwt beam="2">  1       21 0.54359485E-02 0.40992508E+03</pdfrwt>
<totfact> 0.47676095E+04</totfact>
</mgrwt>
</event>
<event>
 6    0  0.1539497E-004  0.5941398E+03  0.7546771E-02  0.9917639E-01
         21   -1    0    0  502  501  0.00000000000E+00  0.00000000000E+00  0.66096327044E+03  0.66096327044E+03  0.00000000000E+00 0.  1.
         21   -1    0    0  501  502 -0.00000000000E+00 -0.00000000000E+00 -0.13351803112E+03  0.13351803112E+03  0.00000000000E+00 0.  1.
      99925    2    1    2    0    0 -0.14941898341E+03  0.86394704750E+02  0.12392874505E+03  0.33812272888E+03  0.26301819011E+03 0.  0.
         25    1    3    3    0    0 -0.54042275932E+02  0.72934712860E+02  0.81086430642E+02  0.17453526080E+03  0.12509000000E+03 0.  0.
         25    1    1    2    0    0  0.14941898341E+03 -0.86394704750E+02  0.40351649427E+03  0.45635857268E+03  0.12509000000E+03 0.  0.
         25    1    3    3    0    0 -0.95376707476E+02  0.13459991890E+02  0.42842314404E+02  0.16358746808E+03  0.12509000000E+03 0.  0.
<mgrwt>
<rscale>  2 0.59413976E+03</rscale>
<asrwt>0</asrwt>
<pdfrwt beam="1">  1       21 0.97200480E-01 0.59413976E+03</pdfrwt>
<pdfrwt beam="2">  1       21 0.19635005E-01 0.59413976E+03</pdfrwt>
<totfact> 0.18266889E+04</totfact>
</mgrwt>
</event>
<event>
 6    0  0.1539497E-004  0.4660994E+03  0.7546771E-02  0.1023027E+00
         21   -1    0    0  502  501  0.00000000000E+00  0.00000000000E+00  0.29368928702E+03  0.29368928702E+03  0.00000000000E+00 0. -1.
         21   -1    0    0  501  502 -0.00000000000E+00 -0.00000000000E+00 -0.18493072267E+03  0.18493072267E+03  0.00000000000E+00 0. -1.
      99925    2    1    2    0    0  0.37980771914E+02 -0.11696795465E+03  0.77003873408E+02  0.30035080330E+03  0.26297712272E+03 0.  0.
         25    1    3    3    0    0  0.31739794582E+02 -0.56788707796E+02 -0.10013282346E+01  0.14099958387E+03  0.12509000000E+03 0.  0.
         25    1    3    3    0    0  0.62409773321E+01 -0.60179246857E+02  0.78005201643E+02  0.15935121943E+03  0.12509000000E+03 0.  0.
         25    1    1    2    0    0 -0.37980771914E+02  0.11696795465E+03  0.31754690946E+02  0.17826920639E+03  0.12509000000E+03 0.  0.
<mgrwt>
<rscale>  2 0.46609944E+03</rscale>
<asrwt>0</asrwt>
<pdfrwt beam="1">  1       21 0.43189601E-01 0.46609944E+03</pdfrwt>
<pdfrwt beam="2">  1       21 0.27195694E-01 0.46609944E+03</pdfrwt>
<totfact> 0.61228290E+04</totfact>
</mgrwt>
</event>
<event>
 6    0  0.1539497E-004  0.4115444E+03  0.7546771E-02  0.1039854E+00
         21   -1    0    0  502  501  0.00000000000E+00  0.00000000000E+00  0.15051529948E+04  0.15051529948E+04  0.00000000000E+00 0. -1.
         21   -1    0    0  501  502 -0.00000000000E+00 -0.00000000000E+00 -0.28131488545E+02  0.28131488545E+02  0.00000000000E+00 0. -1.
      99925    2    1    2    0    0  0.57238873121E+02  0.15249430263E+02  0.10667473151E+04  0.11002934283E+04  0.26303414299E+03 0.  0.
         25    1    3    3    0    0  0.52285960984E+02  0.31921278390E+02  0.65349744101E+03  0.66817602713E+03  0.12509000000E+03 0.  0.
         25    1    1    2    0    0 -0.57238873121E+02 -0.15249430263E+02  0.41027419117E+03  0.43299105506E+03  0.12509000000E+03 0.  0.
         25    1    3    3    0    0  0.49529121368E+01 -0.16671848128E+02  0.41324987411E+03  0.43211740119E+03  0.12509000000E+03 0.  0.
<mgrwt>
<rscale>  2 0.41154438E+03</rscale>
<asrwt>0</asrwt>
<pdfrwt beam="1">  1       21 0.22134598E+00 0.41154438E+03</pdfrwt>
<pdfrwt beam="2">  1       21 0.41369846E-02 0.41154438E+03</pdfrwt>
<totfact> 0.32695126E+04</totfact>
</mgrwt>
</event>
<event>
 6    0  0.1539497E-004  0.4101141E+03  0.7546771E-02  0.1040333E+00
         21   -1    0    0  502  501  0.00000000000E+00  0.00000000000E+00  0.32773577122E+03  0.32773577122E+03  0.00000000000E+00 0.  1.
         21   -1    0    0  501  502 -0.00000000000E+00 -0.00000000000E+00 -0.12829965213E+03  0.12829965213E+03  0.00000000000E+00 0.  1.
      99925    2    1    2    0    0 -0.49866956734E+02  0.38007155320E+02  0.12861044912E+03  0.29920736190E+03  0.26277964260E+03 0.  0.
         25    1    3    3    0    0 -0.29390101241E+02 -0.11745870731E+02  0.34127035396E+02  0.13346874606E+03  0.12509000000E+03 0.  0.
         25    1    3    3    0    0 -0.20476855493E+02  0.49753026051E+02  0.94483413719E+02  0.16573861584E+03  0.12509000000E+03 0.  0.
         25    1    1    2    0    0  0.49866956734E+02 -0.38007155320E+02  0.70825669973E+02  0.15682806144E+03  0.12509000000E+03 0.  0.
<mgrwt>
<rscale>  2 0.41011406E+03</rscale>
<asrwt>0</asrwt>
<pdfrwt beam="1">  1       21 0.48196437E-01 0.41011406E+03</pdfrwt>
<pdfrwt beam="2">  1       21 0.18867596E-01 0.41011406E+03</pdfrwt>
<totfact> 0.99478706E+04</totfact>
</mgrwt>
</event>
<event>
 6    0  0.1539497E-004  0.4424807E+03  0.7546771E-02  0.1029988E+00
         21   -1    0    0  502  501  0.00000000000E+00  0.00000000000E+00  0.44221590516E+02  0.44221590516E+02  0.00000000000E+00 0. -1.
         21   -1    0    0  501  502 -0.00000000000E+00 -0.00000000000E+00 -0.11068640425E+04  0.11068640425E+04  0.00000000000E+00 0. -1.
      99925    2    1    2    0    0 -0.44283418360E+02 -0.51920751388E+01 -0.91239275811E+03  0.95056017979E+03  0.26289947047E+03 0.  0.
         25    1    1    2    0    0  0.44283418360E+02  0.51920751388E+01 -0.15024969392E+03  0.20052545327E+03  0.12509000000E+03 0.  0.
         25    1    3    3    0    0 -0.51385368778E+01 -0.34995889209E+02 -0.38720980135E+03  0.40844835070E+03  0.12509000000E+03 0.  0.
         25    1    3    3    0    0 -0.39144881482E+02  0.29803814070E+02 -0.52518295675E+03  0.54211182909E+03  0.12509000000E+03 0.  0.
<mgrwt>
<rscale>  2 0.44248068E+03</rscale>
<asrwt>0</asrwt>
<pdfrwt beam="1">  1       21 0.65031751E-02 0.44248068E+03</pdfrwt>
<pdfrwt beam="2">  1       21 0.16277412E+00 0.44248068E+03</pdfrwt>
<totfact> 0.37250069E+04</totfact>
</mgrwt>
</event>
<event>
 6    0  0.1539497E-004  0.4218953E+03  0.7546771E-02  0.1036451E+00
         21   -1    0    0  502  501  0.00000000000E+00  0.00000000000E+00  0.14084830367E+04  0.14084830367E+04  0.00000000000E+00 0. -1.
         21   -1    0    0  501  502 -0.00000000000E+00 -0.00000000000E+00 -0.31593497170E+02  0.31593497170E+02  0.00000000000E+00 0. -1.
      99925    2    1    2    0    0  0.15714673533E+02 -0.23225183809E+02  0.64443505221E+03  0.69648831165E+03  0.26270339096E+03 0.  0.
         25    1    3    3    0    0  0.19424448053E+02 -0.48849770572E+02  0.35838089732E+03  0.38320749592E+03  0.12509000000E+03 0.  0.
         25    1    1    2    0    0 -0.15714673533E+02  0.23225183809E+02  0.73245448730E+03  0.74358822220E+03  0.12509000000E+03 0.  0.
         25    1    3    3    0    0 -0.37097745195E+01  0.25624586763E+02  0.28605415489E+03  0.31328081573E+03  0.12509000000E+03 0.  0.
<mgrwt>
<rscale>  2 0.42189527E+03</rscale>
<asrwt>0</asrwt>
<pdfrwt beam="1">  1       21 0.20712982E+00 0.42189527E+03</pdfrwt>
<pdfrwt beam="2">  1       21 0.46461035E-02 0.42189527E+03</pdfrwt>
<totfact> 0.32987593E+04</totfact>
</mgrwt>
</event>
<event>
 6    0  0.1539497E-004  0.4288403E+03  0.7546771E-02  0.1034227E+00
         21   -1    0    0  502  501  0.00000000000E+00  0.00000000000E+00  0.28415477428E+02  0.28415477428E+02  0.00000000000E+00 0. -1.
         21   -1    0    0  501  502 -0.00000000000E+00 -0.00000000000E+00 -0.16179912365E+04  0.16179912365E+04  0.00000000000E+00 0. -1.
      99925    2    1    2    0    0 -0.22253323251E+02 -0.49804954784E+02 -0.12830913482E+04  0.13109131281E+04  0.26304767194E+03 0.  0.
         25    1    1    2    0    0  0.22253323251E+02  0.49804954784E+02 -0.30648441089E+03  0.33549358583E+03  0.12509000000E+03 0.  0.
         25    1    3    3    0    0 -0.50617622781E+02 -0.26390363067E+02 -0.70773229306E+03  0.72096539566E+03  0.12509000000E+03 0.  0.
         25    1    3    3    0    0  0.28364299530E+02 -0.23414591717E+02 -0.57535905509E+03  0.58994773241E+03  0.12509000000E+03 0.  0.
<mgrwt>
<rscale>  2 0.42884027E+03</rscale>
<asrwt>0</asrwt>
<pdfrwt beam="1">  1       21 0.41787461E-02 0.42884027E+03</pdfrwt>
<pdfrwt beam="2">  1       21 0.23793992E+00 0.42884027E+03</pdfrwt>
<totfact> 0.25131150E+04</totfact>
</mgrwt>
</event>
<event>
 6    0  0.1539497E-004  0.3989844E+03  0.7546771E-02  0.1044132E+00
         21   -1    0    0  502  501  0.00000000000E+00  0.00000000000E+00  0.16841880861E+02  0.16841880861E+02  0.00000000000E+00 0.  1.
         21   -1    0    0  501  502 -0.00000000000E+00 -0.00000000000E+00 -0.23629862359E+04  0.23629862359E+04  0.00000000000E+00 0.  1.
      99925    2    1    2    0    0 -0.35455182849E+02  0.17035411984E+02 -0.16671285301E+04  0.16882666416E+04  0.26339977630E+03 0.  0.
         25    1    3    3    0    0 -0.13226197718E+02  0.34343103107E+01 -0.10854420461E+04  0.10927116135E+04  0.12509000000E+03 0.  0.
         25    1    3    3    0    0 -0.22228985131E+02  0.13601101673E+02 -0.58168648405E+03  0.59555502816E+03  0.12509000000E+03 0.  0.
         25    1    1    2    0    0  0.35455182849E+02 -0.17035411984E+02 -0.67901582496E+03  0.69156147514E+03  0.12509000000E+03 0.  0.
<mgrwt>
<rscale>  2 0.39898437E+03</rscale>
<asrwt>0</asrwt>
<pdfrwt beam="1">  1       21 0.24767457E-02 0.39898437E+03</pdfrwt>
<pdfrwt beam="2">  1       21 0.34749818E+00 0.39898437E+03</pdfrwt>
<totfact> 0.13393154E+04</totfact>
</mgrwt>
</event>
<event>
 6    0  0.1539497E-004  0.4158310E+03  0.7546771E-02  0.1038432E+00
         21   -1    0    0  502  501  0.00000000000E+00  0.00000000000E+00  0.17118239761E+04  0.17118239761E+04  0.00000000000E+00 0. -1.
         21   -1    0    0  501  502 -0.00000000000E+00 -0.00000000000E+00 -0.25253100526E+02  0.25253100526E+02  0.00000000000E+00 0. -1.
      99925    2    1    2    0    0 -0.64651710881E+02 -0.10853236843E+00  0.98655410983E+03  0.10230386772E+04  0.26294346889E+03 0.  0.
         25    1    1    2    0    0  0.64651710881E+02  0.10853236843E+00  0.70001676578E+03  0.71403839951E+03  0.12509000000E+03 0.  0.
         25    1    3    3    0    0 -0.49451292621E+02 -0.35443953547E+02  0.46888374715E+03  0.48908197741E+03  0.12509000000E+03 0.  0.
         25    1    3    3    0    0 -0.15200418260E+02  0.35335421179E+02  0.51767036268E+03  0.53395669974E+03  0.12509000000E+03 0.  0.
<mgrwt>
<rscale>  2 0.41583104E+03</rscale>
<asrwt>0</asrwt>
<pdfrwt beam="1">  1       21 0.25173874E+00 0.41583104E+03</pdfrwt>
<pdfrwt beam="2">  1       21 0.37136924E-02 0.41583104E+03</pdfrwt>
<totfact> 0.25384921E+04</totfact>
</mgrwt>
</event>
<event>
 6    0  0.1539497E-004  0.4162397E+03  0.7546771E-02  0.1038297E+00
         21   -1    0    0  502  501  0.00000000000E+00  0.00000000000E+00  0.39385759596E+03  0.39385759596E+03  0.00000000000E+00 0. -1.
         21   -1    0    0  501  502 -0.00000000000E+00 -0.00000000000E+00 -0.10997344553E+03  0.10997344553E+03  0.00000000000E+00 0. -1.
      99925    2    1    2    0    0  0.37890445334E+02 -0.41007028311E+02  0.13219607303E+03  0.29944404792E+03  0.26281870917E+03 0.  0.
         25    1    1    2    0    0 -0.37890445334E+02  0.41007028311E+02  0.15168807740E+03  0.20438699358E+03  0.12509000000E+03 0.  0.
         25    1    3    3    0    0 -0.11652981637E+01 -0.75797560552E+01  0.10023180819E+03  0.16047658426E+03  0.12509000000E+03 0.  0.
         25    1    3    3    0    0  0.39055743498E+02 -0.33427272256E+02  0.31964264847E+02  0.13896746367E+03  0.12509000000E+03 0.  0.
<mgrwt>
<rscale>  2 0.41623972E+03</rscale>
<asrwt>0</asrwt>
<pdfrwt beam="1">  1       21 0.57920234E-01 0.41623972E+03</pdfrwt>
<pdfrwt beam="2">  1       21 0.16172566E-01 0.41623972E+03</pdfrwt>
<totfact> 0.89497732E+04</totfact>
</mgrwt>
</event>
<event>
 6    0  0.1539497E-004  0.4315079E+03  0.7546771E-02  0.1033385E+00
         21   -1    0    0  502  501  0.00000000000E+00  0.00000000000E+00  0.29460556552E+03  0.29460556552E+03  0.00000000000E+00 0. -1.
         21   -1    0    0  501  502 -0.00000000000E+00 -0.00000000000E+00 -0.15800710084E+03  0.15800710084E+03  0.00000000000E+00 0. -1.
      99925    2    1    2    0    0  0.36209564366E+02  0.50330733504E+02  0.15536328703E+03  0.31174413920E+03  0.26306338035E+03 0.  0.
         25    1    3    3    0    0  0.16804739436E+02  0.55912018549E+02  0.49562567730E+02  0.14667143316E+03  0.12509000000E+03 0.  0.
         25    1    1    2    0    0 -0.36209564366E+02 -0.50330733504E+02 -0.18764822354E+02  0.14086852716E+03  0.12509000000E+03 0.  0.
         25    1    3    3    0    0  0.19404824930E+02 -0.55812850447E+01  0.10580071930E+03  0.16507270604E+03  0.12509000000E+03 0.  0.
<mgrwt>
<rscale>  2 0.43150792E+03</rscale>
<asrwt>0</asrwt>
<pdfrwt beam="1">  1       21 0.43324348E-01 0.43150792E+03</pdfrwt>
<pdfrwt beam="2">  1       21 0.23236338E-01 0.43150792E+03</pdfrwt>
<totfact> 0.83211101E+04</totfact>
</mgrwt>
</event>
<event>
 6    0  0.1539497E-004  0.4400020E+03  0.7546771E-02  0.1030746E+00
         21   -1    0    0  502  501  0.00000000000E+00  0.00000000000E+00  0.10241458524E+03  0.10241458524E+03  0.00000000000E+00 0. -1.
         21   -1    0    0  501  502 -0.00000000000E+00 -0.00000000000E+00 -0.47259324347E+03  0.47259324347E+03  0.00000000000E+00 0. -1.
      99925    2    1    2    0    0 -0.38590899453E+02 -0.67900865491E+02 -0.31444805026E+03  0.41735887115E+03  0.26307996114E+03 0.  0.
         25    1    3    3    0    0 -0.46058554342E+02 -0.47843176454E+02 -0.12251760500E+03  0.18726567116E+03  0.12509000000E+03 0.  0.
         25    1    1    2    0    0  0.38590899453E+02  0.67900865491E+02 -0.55730607972E+02  0.15764895756E+03  0.12509000000E+03 0.  0.
         25    1    3    3    0    0  0.74676548887E+01 -0.20057689037E+02 -0.19193044527E+03  0.23009319999E+03  0.12509000000E+03 0.  0.
<mgrwt>
<rscale>  2 0.44000200E+03</rscale>
<asrwt>0</asrwt>
<pdfrwt beam="1">  1       21 0.15060968E-01 0.44000200E+03</pdfrwt>
<pdfrwt beam="2">  1       21 0.69499008E-01 0.44000200E+03</pdfrwt>
<totfact> 0.67949728E+04</totfact>
</mgrwt>
</event>
<event>
 6    0  0.1539497E-004  0.4666400E+03  0.7546771E-02  0.1022873E+00
         21   -1    0    0  502  501  0.00000000000E+00  0.00000000000E+00  0.34222543673E+03  0.34222543673E+03  0.00000000000E+00 0. -1.
         21   -1    0    0  501  502 -0.00000000000E+00 -0.00000000000E+00 -0.15907126579E+03  0.15907126579E+03  0.00000000000E+00 0. -1.
      99925    2    1    2    0    0 -0.12241724283E+03 -0.13802365037E+02  0.12705542728E+03  0.31698429446E+03  0.26298189046E+03 0.  0.
         25    1    3    3    0    0 -0.92204091554E+02  0.20627682843E+02  0.60074355440E+02  0.16787951656E+03  0.12509000000E+03 0.  0.
         25    1    1    2    0    0  0.12241724283E+03  0.13802365037E+02  0.56098743658E+02  0.18431240806E+03  0.12509000000E+03 0.  0.
         25    1    3    3    0    0 -0.30213151281E+02 -0.34430047880E+02  0.66981071839E+02  0.14910477790E+03  0.12509000000E+03 0.  0.
<mgrwt>
<rscale>  2 0.46664005E+03</rscale>
<asrwt>0</asrwt>
<pdfrwt beam="1">  1       21 0.50327270E-01 0.46664005E+03</pdfrwt>
<pdfrwt beam="2">  1       21 0.23392833E-01 0.46664005E+03</pdfrwt>
<totfact> 0.59489586E+04</totfact>
</mgrwt>
</event>
<event>
 6    0  0.1539497E-004  0.4080247E+03  0.7546771E-02  0.1041036E+00
         21   -1    0    0  502  501  0.00000000000E+00  0.00000000000E+00  0.12799873487E+03  0.12799873487E+03  0.00000000000E+00 0.  1.
         21   -1    0    0  501  502 -0.00000000000E+00 -0.00000000000E+00 -0.32516762059E+03  0.32516762059E+03  0.00000000000E+00 0.  1.
      99925    2    1    2    0    0  0.72938293564E+01 -0.50385017049E+02 -0.16386704020E+03  0.31406793382E+03  0.26304830412E+03 0.  0.
         25    1    3    3    0    0 -0.11848527499E+02 -0.22329967158E+02 -0.37428331997E+02  0.13299399676E+03  0.12509000000E+03 0.  0.
         25    1    3    3    0    0  0.19142356855E+02 -0.28055049891E+02 -0.12643870820E+03  0.18107393706E+03  0.12509000000E+03 0.  0.
         25    1    1    2    0    0 -0.72938293564E+01  0.50385017049E+02 -0.33301845520E+02  0.13909842165E+03  0.12509000000E+03 0.  0.
<mgrwt>
<rscale>  2 0.40802473E+03</rscale>
<asrwt>0</asrwt>
<pdfrwt beam="1">  1       21 0.18823344E-01 0.40802473E+03</pdfrwt>
<pdfrwt beam="2">  1       21 0.47818767E-01 0.40802473E+03</pdfrwt>
<totfact> 0.10163663E+05</totfact>
</mgrwt>
</event>
<event>
 6    0  0.1539497E-004  0.4355453E+03  0.7546771E-02  0.1032122E+00
         21   -1    0    0  502  501  0.00000000000E+00  0.00000000000E+00  0.46192542483E+02  0.46192542483E+02  0.00000000000E+00 0. -1.
         21   -1    0    0  501  502 -0.00000000000E+00 -0.00000000000E+00 -0.10266792486E+04  0.10266792486E+04  0.00000000000E+00 0. -1.
      99925    2    1    2    0    0 -0.31015240847E+02 -0.79036152216E+02 -0.72675803449E+03  0.77751707988E+03  0.26295800100E+03 0.  0.
         25    1    1    2    0    0  0.31015240847E+02  0.79036152216E+02 -0.25372867161E+03  0.29535471119E+03  0.12509000000E+03 0.  0.
         25    1    3    3    0    0 -0.17059546503E+02  0.25583004147E+01 -0.33966425879E+03  0.36237672363E+03  0.12509000000E+03 0.  0.
         25    1    3    3    0    0 -0.13955694344E+02 -0.81594452631E+02 -0.38709377570E+03  0.41514035625E+03  0.12509000000E+03 0.  0.
<mgrwt>
<rscale>  2 0.43554529E+03</rscale>
<asrwt>0</asrwt>
<pdfrwt beam="1">  1       21 0.67930214E-02 0.43554529E+03</pdfrwt>
<pdfrwt beam="2">  1       21 0.15098223E+00 0.43554529E+03</pdfrwt>
<totfact> 0.42551078E+04</totfact>
</mgrwt>
</event>
<event>
 6    0  0.1539497E-004  0.4616790E+03  0.7546771E-02  0.1024295E+00
         21   -1    0    0  502  501  0.00000000000E+00  0.00000000000E+00  0.20026456901E+04  0.20026456901E+04  0.00000000000E+00 0.  1.
         21   -1    0    0  501  502 -0.00000000000E+00 -0.00000000000E+00 -0.26608237942E+02  0.26608237942E+02  0.00000000000E+00 0.  1.
      99925    2    1    2    0    0  0.45098808497E+02 -0.76513526411E+02  0.88927055956E+03  0.93171212510E+03  0.26343335725E+03 0.  0.
         25    1    3    3    0    0  0.78022908353E+01 -0.22559233768E+02  0.30311960332E+03  0.32878381467E+03  0.12509000000E+03 0.  0.
         25    1    1    2    0    0 -0.45098808497E+02  0.76513526411E+02  0.10867668926E+04  0.10975418030E+04  0.12509000000E+03 0.  0.
         25    1    3    3    0    0  0.37296517661E+02 -0.53954292643E+02  0.58615095623E+03  0.60292831043E+03  0.12509000000E+03 0.  0.
<mgrwt>
<rscale>  2 0.46167899E+03</rscale>
<asrwt>0</asrwt>
<pdfrwt beam="1">  1       21 0.29450662E+00 0.46167899E+03</pdfrwt>
<pdfrwt beam="2">  1       21 0.39129775E-02 0.46167899E+03</pdfrwt>
<totfact> 0.12573315E+04</totfact>
</mgrwt>
</event>
<event>
 6    0  0.1539497E-004  0.4637023E+03  0.7546771E-02  0.1023713E+00
         21   -1    0    0  502  501  0.00000000000E+00  0.00000000000E+00  0.21424190540E+03  0.21424190540E+03  0.00000000000E+00 0. -1.
         21   -1    0    0  501  502 -0.00000000000E+00 -0.00000000000E+00 -0.25090772026E+03  0.25090772026E+03  0.00000000000E+00 0. -1.
      99925    2    1    2    0    0  0.31510177741E+01  0.18702260433E+02  0.96935212017E+02  0.28114841388E+03  0.26322669287E+03 0.  0.
         25    1    3    3    0    0  0.29705124668E+02 -0.18859103333E+02  0.57976612941E+02  0.14229144724E+03  0.12509000000E+03 0.  0.
         25    1    1    2    0    0 -0.31510177741E+01 -0.18702260433E+02 -0.13360102688E+03  0.18400121179E+03  0.12509000000E+03 0.  0.
         25    1    3    3    0    0 -0.26554106894E+02  0.37561363766E+02  0.38958599076E+02  0.13885696663E+03  0.12509000000E+03 0.  0.
<mgrwt>
<rscale>  2 0.46370227E+03</rscale>
<asrwt>0</asrwt>
<pdfrwt beam="1">  1       21 0.31506162E-01 0.46370227E+03</pdfrwt>
<pdfrwt beam="2">  1       21 0.36898194E-01 0.46370227E+03</pdfrwt>
<totfact> 0.63298108E+04</totfact>
</mgrwt>
</event>
<event>
 6    0  0.1539497E-004  0.4339927E+03  0.7546771E-02  0.1032606E+00
         21   -1    0    0  502  501  0.00000000000E+00  0.00000000000E+00  0.21951924946E+03  0.21951924946E+03  0.00000000000E+00 0.  1.
         21   -1    0    0  501  502 -0.00000000000E+00 -0.00000000000E+00 -0.21450248842E+03  0.21450248842E+03  0.00000000000E+00 0.  1.
      99925    2    1    2    0    0 -0.54272404182E+02  0.45035339046E+02  0.62656634775E+02  0.27928473919E+03  0.26286961796E+03 0.  0.
         25    1    3    3    0    0 -0.31296747178E+02  0.59156039271E+02  0.14690290215E+02  0.14262621110E+03  0.12509000000E+03 0.  0.
         25    1    3    3    0    0 -0.22975657004E+02 -0.14120700224E+02  0.47966344560E+02  0.13665852809E+03  0.12509000000E+03 0.  0.
         25    1    1    2    0    0  0.54272404182E+02 -0.45035339046E+02 -0.57639873742E+02  0.15473699869E+03  0.12509000000E+03 0.  0.
<mgrwt>
<rscale>  2 0.43399274E+03</rscale>
<asrwt>0</asrwt>
<pdfrwt beam="1">  1       21 0.32282243E-01 0.43399274E+03</pdfrwt>
<pdfrwt beam="2">  1       21 0.31544484E-01 0.43399274E+03</pdfrwt>
<totfact> 0.83207257E+04</totfact>
</mgrwt>
</event>
<event>
 6    0  0.1539497E-004  0.4687920E+03  0.7546771E-02  0.1022262E+00
         21   -1    0    0  502  501  0.00000000000E+00  0.00000000000E+00  0.44383450771E+02  0.44383450771E+02  0.00000000000E+00 0.  1.
         21   -1    0    0  501  502 -0.00000000000E+00 -0.00000000000E+00 -0.12378822516E+04  0.12378822516E+04  0.00000000000E+00 0.  1.
      99925    2    1    2    0    0 -0.10747282430E+03 -0.64773734122E+02 -0.75951957953E+03  0.81351041738E+03  0.26302692428E+03 0.  0.
         25    1    3    3    0    0 -0.75564539702E+02 -0.49920943692E+02 -0.49948366537E+03  0.52281310269E+03  0.12509000000E+03 0.  0.
         25    1    1    2    0    0  0.10747282430E+03  0.64773734122E+02 -0.43397922133E+03  0.46875528503E+03  0.12509000000E+03 0.  0.
         25    1    3    3    0    0 -0.31908284594E+02 -0.14852790429E+02 -0.26003591416E+03  0.29069731468E+03  0.12509000000E+03 0.  0.
<mgrwt>
<rscale>  2 0.46879200E+03</rscale>
<asrwt>0</asrwt>
<pdfrwt beam="1">  1       21 0.65269784E-02 0.46879200E+03</pdfrwt>
<pdfrwt beam="2">  1       21 0.18204150E+00 0.46879200E+03</pdfrwt>
<totfact> 0.26656128E+04</totfact>
</mgrwt>
</event>
<event>
 6    0  0.1539497E-004  0.3931951E+03  0.7546771E-02  0.1046162E+00
         21   -1    0    0  502  501  0.00000000000E+00  0.00000000000E+00  0.39977674893E+03  0.39977674893E+03  0.00000000000E+00 0.  1.
         21   -1    0    0  501  502 -0.00000000000E+00 -0.00000000000E+00 -0.96680470523E+02  0.96680470523E+02  0.00000000000E+00 0.  1.
      99925    2    1    2    0    0 -0.95775992808E+01  0.26503941126E+02  0.21184480358E+03  0.33907701402E+03  0.26325047261E+03 0.  0.
         25    1    3    3    0    0 -0.53679833667E+01  0.36264483161E+02  0.15127404987E+03  0.19968794217E+03  0.12509000000E+03 0.  0.
         25    1    1    2    0    0  0.95775992808E+01 -0.26503941126E+02  0.91251474831E+02  0.15738020543E+03  0.12509000000E+03 0.  0.
         25    1    3    3    0    0 -0.42096159142E+01 -0.97605420351E+01  0.60570753710E+02  0.13938907185E+03  0.12509000000E+03 0.  0.
<mgrwt>
<rscale>  2 0.39319514E+03</rscale>
<asrwt>0</asrwt>
<pdfrwt beam="1">  1       21 0.58790698E-01 0.39319514E+03</pdfrwt>
<pdfrwt beam="2">  1       21 0.14217716E-01 0.39319514E+03</pdfrwt>
<totfact> 0.11052234E+05</totfact>
</mgrwt>
</event>
<event>
 6    0  0.1539497E-004  0.4067823E+03  0.7546771E-02  0.1041456E+00
         21   -1    0    0  502  501  0.00000000000E+00  0.00000000000E+00  0.58344312180E+02  0.58344312180E+02  0.00000000000E+00 0.  1.
         21   -1    0    0  501  502 -0.00000000000E+00 -0.00000000000E+00 -0.70903142660E+03  0.70903142660E+03  0.00000000000E+00 0.  1.
      99925    2    1    2    0    0 -0.32196030888E+02 -0.52452903933E+01 -0.34171529284E+03  0.43245008717E+03  0.26302022557E+03 0.  0.
         25    1    3    3    0    0 -0.17481459980E+02  0.20090371998E+02 -0.11565304928E+03  0.17243074087E+03  0.12509000000E+03 0.  0.
         25    1    3    3    0    0 -0.14714570908E+02 -0.25335662391E+02 -0.22606224356E+03  0.26001934630E+03  0.12509000000E+03 0.  0.
         25    1    1    2    0    0  0.32196030888E+02  0.52452903933E+01 -0.30897182157E+03  0.33492565160E+03  0.12509000000E+03 0.  0.
<mgrwt>
<rscale>  2 0.40678226E+03</rscale>
<asrwt>0</asrwt>
<pdfrwt beam="1">  1       21 0.85800461E-02 0.40678226E+03</pdfrwt>
<pdfrwt beam="2">  1       21 0.10426932E+00 0.40678226E+03</pdfrwt>
<totfact> 0.73502802E+04</totfact>
</mgrwt>
</event>
<event>
 6    0  0.1734196E-004  0.4100195E+03  0.7546771E-02  0.1040364E+00
         21   -1    0    0  502  501  0.00000000000E+00  0.00000000000E+00  0.11094476942E+03  0.11094476942E+03  0.00000000000E+00 0.  1.
         21   -1    0    0  501  502 -0.00000000000E+00 -0.00000000000E+00 -0.37882816514E+03  0.37882816514E+03  0.00000000000E+00 0.  1.
      99925    2    1    2    0    0  0.17835037070E+02 -0.55644560222E+02 -0.15180049687E+03  0.30939235597E+03  0.26318402963E+03 0.  0.
         25    1    3    3    0    0 -0.10431822786E+02 -0.26424579414E+02 -0.11631668638E+03  0.17315935134E+03  0.12509000000E+03 0.  0.
         25    1    1    2    0    0 -0.17835037070E+02  0.55644560222E+02 -0.11608289885E+03  0.18038057859E+03  0.12509000000E+03 0.  0.
         25    1    3    3    0    0  0.28266859856E+02 -0.29219980808E+02 -0.35483810487E+02  0.13623300463E+03  0.12509000000E+03 0.  0.
<mgrwt>
<rscale>  2 0.41001953E+03</rscale>
<asrwt>0</asrwt>
<pdfrwt beam="1">  1       21 0.16315407E-01 0.41001953E+03</pdfrwt>
<pdfrwt beam="2">  1       21 0.55710024E-01 0.41001953E+03</pdfrwt>
<totfact> 0.95908145E+04</totfact>
</mgrwt>
</event>
<event>
 6    0  0.1539497E-004  0.4448456E+03  0.7546771E-02  0.1029270E+00
         21   -1    0    0  502  501  0.00000000000E+00  0.00000000000E+00  0.13209272883E+03  0.13209272883E+03  0.00000000000E+00 0.  1.
         21   -1    0    0  501  502 -0.00000000000E+00 -0.00000000000E+00 -0.37452404359E+03  0.37452404359E+03  0.00000000000E+00 0.  1.
      99925    2    1    2    0    0 -0.34502514619E+02 -0.97438498226E+02 -0.15525582815E+03  0.32241102328E+03  0.26298253042E+03 0.  0.
         25    1    3    3    0    0 -0.42887928327E+02 -0.83009131103E+02 -0.79285163816E+02  0.17511006694E+03  0.12509000000E+03 0.  0.
         25    1    1    2    0    0  0.34502514619E+02  0.97438498226E+02 -0.87175486607E+02  0.18420574914E+03  0.12509000000E+03 0.  0.
         25    1    3    3    0    0  0.83854137079E+01 -0.14429367123E+02 -0.75970664333E+02  0.14730095634E+03  0.12509000000E+03 0.  0.
<mgrwt>
<rscale>  2 0.44484560E+03</rscale>
<asrwt>0</asrwt>
<pdfrwt beam="1">  1       21 0.19425402E-01 0.44484560E+03</pdfrwt>
<pdfrwt beam="2">  1       21 0.55077064E-01 0.44484560E+03</pdfrwt>
<totfact> 0.70305064E+04</totfact>
</mgrwt>
</event>
<event>
 6    0  0.1539497E-004  0.5628814E+03  0.7546771E-02  0.9985556E-01
         21   -1    0    0  502  501  0.00000000000E+00  0.00000000000E+00  0.65191391660E+03  0.65191391660E+03  0.00000000000E+00 0. -1.
         21   -1    0    0  501  502 -0.00000000000E+00 -0.00000000000E+00 -0.12150201679E+03  0.12150201679E+03  0.00000000000E+00 0. -1.
      99925    2    1    2    0    0 -0.13081180403E+03  0.14076842216E+03  0.24675728656E+03  0.40867640377E+03  0.26305848737E+03 0.  0.
         25    1    1    2    0    0  0.13081180403E+03 -0.14076842216E+03  0.28365461325E+03  0.36473952962E+03  0.12509000000E+03 0.  0.
         25    1    3    3    0    0 -0.36305203784E+02  0.71156546259E+02  0.15311607690E+03  0.21324484285E+03  0.12509000000E+03 0.  0.
         25    1    3    3    0    0 -0.94506600250E+02  0.69611875897E+02  0.93641209659E+02  0.19543156092E+03  0.12509000000E+03 0.  0.
<mgrwt>
<rscale>  2 0.56288136E+03</rscale>
<asrwt>0</asrwt>
<pdfrwt beam="1">  1       21 0.95869692E-01 0.56288136E+03</pdfrwt>
<pdfrwt beam="2">  1       21 0.17867944E-01 0.56288136E+03</pdfrwt>
<totfact> 0.22741698E+04</totfact>
</mgrwt>
</event>
<event>
 6    0  0.1539497E-004  0.4011906E+03  0.7546771E-02  0.1043368E+00
         21   -1    0    0  502  501  0.00000000000E+00  0.00000000000E+00  0.47502125846E+03  0.47502125846E+03  0.00000000000E+00 0.  1.
         21   -1    0    0  501  502 -0.00000000000E+00 -0.00000000000E+00 -0.84708805327E+02  0.84708805327E+02  0.00000000000E+00 0.  1.
      99925    2    1    2    0    0 -0.18375003535E+02  0.27079461806E+02  0.30852503156E+03  0.40673454609E+03  0.26301018589E+03 0.  0.
         25    1    1    2    0    0  0.18375003535E+02 -0.27079461806E+02  0.81787421581E+02  0.15299551770E+03  0.12509000000E+03 0.  0.
         25    1    3    3    0    0 -0.30003525539E+02  0.23279653122E+02  0.10565422111E+03  0.16808472962E+03  0.12509000000E+03 0.  0.
         25    1    3    3    0    0  0.11628522005E+02  0.37998086842E+01  0.20287081045E+03  0.23864981647E+03  0.12509000000E+03 0.  0.
<mgrwt>
<rscale>  2 0.40119064E+03</rscale>
<asrwt>0</asrwt>
<pdfrwt beam="1">  1       21 0.69856067E-01 0.40119064E+03</pdfrwt>
<pdfrwt beam="2">  1       21 0.12457177E-01 0.40119064E+03</pdfrwt>
<totfact> 0.96019642E+04</totfact>
</mgrwt>
</event>
<event>
 6    0  0.1539497E-004  0.4979352E+03  0.7546771E-02  0.1014319E+00
         21   -1    0    0  502  501  0.00000000000E+00  0.00000000000E+00  0.95476778626E+02  0.95476778626E+02  0.00000000000E+00 0.  1.
         21   -1    0    0  501  502 -0.00000000000E+00 -0.00000000000E+00 -0.64921394665E+03  0.64921394665E+03  0.00000000000E+00 0.  1.
      99925    2    1    2    0    0  0.11781427994E+03 -0.92565618495E+02 -0.33915548526E+03  0.45461934620E+03  0.26306597740E+03 0.  0.
         25    1    1    2    0    0 -0.11781427994E+03  0.92565618495E+02 -0.21458168277E+03  0.29007137908E+03  0.12509000000E+03 0.  0.
         25    1    3    3    0    0  0.85258694365E+02 -0.37815014470E+02 -0.22435469691E+03  0.27327926817E+03  0.12509000000E+03 0.  0.
         25    1    3    3    0    0  0.32555585573E+02 -0.54750604026E+02 -0.11480078835E+03  0.18134007803E+03  0.12509000000E+03 0.  0.
<mgrwt>
<rscale>  2 0.49793516E+03</rscale>
<asrwt>0</asrwt>
<pdfrwt beam="1">  1       21 0.14040703E-01 0.49793516E+03</pdfrwt>
<pdfrwt beam="2">  1       21 0.95472639E-01 0.49793516E+03</pdfrwt>
<totfact> 0.36547929E+04</totfact>
</mgrwt>
</event>
<event>
 6    0  0.1539497E-004  0.4052766E+03  0.7546771E-02  0.1041968E+00
         21   -1    0    0  502  501  0.00000000000E+00  0.00000000000E+00  0.64558752948E+03  0.64558752948E+03  0.00000000000E+00 0.  1.
         21   -1    0    0  501  502 -0.00000000000E+00 -0.00000000000E+00 -0.63604512781E+02  0.63604512781E+02  0.00000000000E+00 0.  1.
      99925    2    1    2    0    0 -0.53608690467E+02 -0.79973353946E+01  0.36889572993E+03  0.45622653286E+03  0.26290823618E+03 0.  0.
         25    1    1    2    0    0  0.53608690467E+02  0.79973353946E+01  0.21308728677E+03  0.25296550941E+03  0.12509000000E+03 0.  0.
         25    1    3    3    0    0 -0.43110035134E+02 -0.36901963891E+02  0.16072864219E+03  0.21142713778E+03  0.12509000000E+03 0.  0.
         25    1    3    3    0    0 -0.10498655333E+02  0.28904628497E+02  0.20816708774E+03  0.24479939508E+03  0.12509000000E+03 0.  0.
<mgrwt>
<rscale>  2 0.40527660E+03</rscale>
<asrwt>0</asrwt>
<pdfrwt beam="1">  1       21 0.94939339E-01 0.40527660E+03</pdfrwt>
<pdfrwt beam="2">  1       21 0.93536052E-02 0.40527660E+03</pdfrwt>
<totfact> 0.79103032E+04</totfact>
</mgrwt>
</event>
<event>
 6    0  0.1539497E-004  0.4063358E+03  0.7546771E-02  0.1041608E+00
         21   -1    0    0  502  501  0.00000000000E+00  0.00000000000E+00  0.66660729498E+03  0.66660729498E+03  0.00000000000E+00 0.  1.
         21   -1    0    0  501  502 -0.00000000000E+00 -0.00000000000E+00 -0.61921297365E+02  0.61921297365E+02  0.00000000000E+00 0.  1.
      99925    2    1    2    0    0  0.33566765103E+01  0.44088695703E+02  0.33694775673E+03  0.42972036940E+03  0.26300327897E+03 0.  0.
         25    1    3    3    0    0 -0.91953439623E+01  0.58289074416E+02  0.15052035504E+03  0.20441637882E+03  0.12509000000E+03 0.  0.
         25    1    3    3    0    0  0.12552020473E+02 -0.14200378714E+02  0.18642740168E+03  0.22530399058E+03  0.12509000000E+03 0.  0.
         25    1    1    2    0    0 -0.33566765103E+01 -0.44088695703E+02  0.26773824089E+03  0.29880822295E+03  0.12509000000E+03 0.  0.
<mgrwt>
<rscale>  2 0.40633577E+03</rscale>
<asrwt>0</asrwt>
<pdfrwt beam="1">  1       21 0.98030480E-01 0.40633577E+03</pdfrwt>
<pdfrwt beam="2">  1       21 0.91060735E-02 0.40633577E+03</pdfrwt>
<totfact> 0.76826165E+04</totfact>
</mgrwt>
</event>
<event>
 6    0  0.1539497E-004  0.4025104E+03  0.7546771E-02  0.1042914E+00
         21   -1    0    0  502  501  0.00000000000E+00  0.00000000000E+00  0.39452005372E+02  0.39452005372E+02  0.00000000000E+00 0.  1.
         21   -1    0    0  501  502 -0.00000000000E+00 -0.00000000000E+00 -0.10266565475E+04  0.10266565475E+04  0.00000000000E+00 0.  1.
      99925    2    1    2    0    0 -0.27983308838E+02 -0.18613410361E+02 -0.55858810779E+03  0.61834848263E+03  0.26306776159E+03 0.  0.
         25    1    1    2    0    0  0.27983308838E+02  0.18613410361E+02 -0.42861643434E+03  0.44776007025E+03  0.12509000000E+03 0.  0.
         25    1    3    3    0    0 -0.41472642604E+02 -0.35407726621E+02 -0.32534841561E+03  0.35280701074E+03  0.12509000000E+03 0.  0.
         25    1    3    3    0    0  0.13489333766E+02  0.16794316260E+02 -0.23323969218E+03  0.26554147189E+03  0.12509000000E+03 0.  0.
<mgrwt>
<rscale>  2 0.40251042E+03</rscale>
<asrwt>0</asrwt>
<pdfrwt beam="1">  1       21 0.58017659E-02 0.40251042E+03</pdfrwt>
<pdfrwt beam="2">  1       21 0.15097889E+00 0.40251042E+03</pdfrwt>
<totfact> 0.56538013E+04</totfact>
</mgrwt>
</event>
<event>
 6    0  0.1541887E-004  0.3975372E+03  0.7546771E-02  0.1044636E+00
         21   -1    0    0  502  501  0.00000000000E+00  0.00000000000E+00  0.33361405485E+03  0.33361405485E+03  0.00000000000E+00 0. -1.
         21   -1    0    0  501  502 -0.00000000000E+00 -0.00000000000E+00 -0.11842714739E+03  0.11842714739E+03  0.00000000000E+00 0. -1.
      99925    2    1    2    0    0 -0.36785005402E+02 -0.16335574194E+02  0.15098931626E+03  0.30579200935E+03  0.26285165350E+03 0.  0.
         25    1    3    3    0    0 -0.10065763771E+02  0.31728847096E+01  0.11794198236E+03  0.17224751407E+03  0.12509000000E+03 0.  0.
         25    1    3    3    0    0 -0.26719241631E+02 -0.19508458903E+02  0.33047333894E+02  0.13354449528E+03  0.12509000000E+03 0.  0.
         25    1    1    2    0    0  0.36785005402E+02  0.16335574194E+02  0.64197591207E+02  0.14624919290E+03  0.12509000000E+03 0.  0.
<mgrwt>
<rscale>  2 0.39753722E+03</rscale>
<asrwt>0</asrwt>
<pdfrwt beam="1">  1       21 0.49060890E-01 0.39753722E+03</pdfrwt>
<pdfrwt beam="2">  1       21 0.17415757E-01 0.39753722E+03</pdfrwt>
<totfact> 0.11166934E+05</totfact>
</mgrwt>
</event>
<event>
 6    0  0.1539497E-004  0.4950362E+03  0.7546771E-02  0.1015083E+00
         21   -1    0    0  502  501  0.00000000000E+00  0.00000000000E+00  0.75884400176E+03  0.75884400176E+03  0.00000000000E+00 0.  1.
         21   -1    0    0  501  502 -0.00000000000E+00 -0.00000000000E+00 -0.80734911521E+02  0.80734911521E+02  0.00000000000E+00 0.  1.
      99925    2    1    2    0    0  0.84282713919E+02 -0.65359107602E+02  0.23992764579E+03  0.37157690990E+03  0.26292344122E+03 0.  0.
         25    1    3    3    0    0  0.77842372400E+02 -0.43799552769E+02  0.15760910210E+03  0.22014988741E+03  0.12509000000E+03 0.  0.
         25    1    3    3    0    0  0.64403415194E+01 -0.21559554833E+02  0.82318543695E+02  0.15142702249E+03  0.12509000000E+03 0.  0.
         25    1    1    2    0    0 -0.84282713919E+02  0.65359107602E+02  0.43818144444E+03  0.46800200338E+03  0.12509000000E+03 0.  0.
<mgrwt>
<rscale>  2 0.49503617E+03</rscale>
<asrwt>0</asrwt>
<pdfrwt beam="1">  1       21 0.11159470E+00 0.49503617E+03</pdfrwt>
<pdfrwt beam="2">  1       21 0.11872782E-01 0.49503617E+03</pdfrwt>
<totfact> 0.33928289E+04</totfact>
</mgrwt>
</event>
<event>
 6    0  0.1539497E-004  0.5271094E+03  0.7546771E-02  0.1006936E+00
         21   -1    0    0  502  501  0.00000000000E+00  0.00000000000E+00  0.63136625506E+03  0.63136625506E+03  0.00000000000E+00 0. -1.
         21   -1    0    0  501  502 -0.00000000000E+00 -0.00000000000E+00 -0.11001709754E+03  0.11001709754E+03  0.00000000000E+00 0. -1.
      99925    2    1    2    0    0  0.54886159469E+02  0.12377481155E+03  0.16150436855E+03  0.33707100463E+03  0.26305989171E+03 0.  0.
         25    1    1    2    0    0 -0.54886159469E+02 -0.12377481155E+03  0.35984478897E+03  0.40431234797E+03  0.12509000000E+03 0.  0.
         25    1    3    3    0    0 -0.22769963389E+00  0.30658260227E+02  0.88572882866E+02  0.15630945092E+03  0.12509000000E+03 0.  0.
         25    1    3    3    0    0  0.55113859103E+02  0.93116551324E+02  0.72931485684E+02  0.18076155371E+03  0.12509000000E+03 0.  0.
<mgrwt>
<rscale>  2 0.52710941E+03</rscale>
<asrwt>0</asrwt>
<pdfrwt beam="1">  1       21 0.92847977E-01 0.52710941E+03</pdfrwt>
<pdfrwt beam="2">  1       21 0.16178985E-01 0.52710941E+03</pdfrwt>
<totfact> 0.29831310E+04</totfact>
</mgrwt>
</event>
<event>
 6    0  0.1786977E-004  0.4105131E+03  0.7546771E-02  0.1040199E+00
         21   -1    0    0  502  501  0.00000000000E+00  0.00000000000E+00  0.20211942833E+03  0.20211942833E+03  0.00000000000E+00 0. -1.
         21   -1    0    0  501  502 -0.00000000000E+00 -0.00000000000E+00 -0.20844232292E+03  0.20844232292E+03  0.00000000000E+00 0. -1.
      99925    2    1    2    0    0 -0.44596820542E+02  0.31536595337E+02  0.28279846708E+02  0.26974878645E+03  0.26264277035E+03 0.  0.
         25    1    3    3    0    0 -0.46100040812E+02  0.44161876572E+02 -0.18658053517E+01  0.14045096808E+03  0.12509000000E+03 0.  0.
         25    1    3    3    0    0  0.15032202704E+01 -0.12625281235E+02  0.30145652060E+02  0.12929781837E+03  0.12509000000E+03 0.  0.
         25    1    1    2    0    0  0.44596820542E+02 -0.31536595337E+02 -0.34602741300E+02  0.14081296479E+03  0.12509000000E+03 0.  0.
<mgrwt>
<rscale>  2 0.41051306E+03</rscale>
<asrwt>0</asrwt>
<pdfrwt beam="1">  1       21 0.29723446E-01 0.41051306E+03</pdfrwt>
<pdfrwt beam="2">  1       21 0.30653283E-01 0.41051306E+03</pdfrwt>
<totfact> 0.10433250E+05</totfact>
</mgrwt>
</event>
<event>
 6    0  0.1539497E-004  0.4541821E+03  0.7546771E-02  0.1026482E+00
         21   -1    0    0  502  501  0.00000000000E+00  0.00000000000E+00  0.10351719657E+03  0.10351719657E+03  0.00000000000E+00 0. -1.
         21   -1    0    0  501  502 -0.00000000000E+00 -0.00000000000E+00 -0.49818136774E+03  0.49818136774E+03  0.00000000000E+00 0. -1.
      99925    2    1    2    0    0 -0.43785045405E+02  0.12766214398E+02 -0.11253412266E+03  0.28972904849E+03  0.26305681201E+03 0.  0.
         25    1    1    2    0    0  0.43785045405E+02 -0.12766214398E+02 -0.28213004851E+03  0.31196951582E+03  0.12509000000E+03 0.  0.
         25    1    3    3    0    0 -0.61939931366E+02 -0.19734001016E+01 -0.63292999358E+02  0.15327739975E+03  0.12509000000E+03 0.  0.
         25    1    3    3    0    0  0.18154885961E+02  0.14739614499E+02 -0.49241123300E+02  0.13645164874E+03  0.12509000000E+03 0.  0.
<mgrwt>
<rscale>  2 0.45418207E+03</rscale>
<asrwt>0</asrwt>
<pdfrwt beam="1">  1       21 0.15223117E-01 0.45418207E+03</pdfrwt>
<pdfrwt beam="2">  1       21 0.73261966E-01 0.45418207E+03</pdfrwt>
<totfact> 0.58953894E+04</totfact>
</mgrwt>
</event>
<event>
 6    0  0.1539497E-004  0.4239263E+03  0.7546771E-02  0.1035796E+00
         21   -1    0    0  502  501  0.00000000000E+00  0.00000000000E+00  0.28603128514E+03  0.28603128514E+03  0.00000000000E+00 0. -1.
         21   -1    0    0  501  502 -0.00000000000E+00 -0.00000000000E+00 -0.15707507683E+03  0.15707507683E+03  0.00000000000E+00 0. -1.
      99925    2    1    2    0    0 -0.72604066713E+02 -0.22611948606E+02  0.11206371968E+03  0.29574451143E+03  0.26291422184E+03 0.  0.
         25    1    3    3    0    0  0.37765441489E+01  0.80202715082E+00  0.55574830728E+02  0.13693420115E+03  0.12509000000E+03 0.  0.
         25    1    3    3    0    0 -0.76380610862E+02 -0.23413975757E+02  0.56488888956E+02  0.15881031028E+03  0.12509000000E+03 0.  0.
         25    1    1    2    0    0  0.72604066713E+02  0.22611948606E+02  0.16892488620E+02  0.14736185054E+03  0.12509000000E+03 0.  0.
<mgrwt>
<rscale>  2 0.42392634E+03</rscale>
<asrwt>0</asrwt>
<pdfrwt beam="1">  1       21 0.42063424E-01 0.42392634E+03</pdfrwt>
<pdfrwt beam="2">  1       21 0.23099276E-01 0.42392634E+03</pdfrwt>
<totfact> 0.89627303E+04</totfact>
</mgrwt>
</event>
<event>
 6    0  0.1539497E-004  0.4453796E+03  0.7546771E-02  0.1029109E+00
         21   -1    0    0  502  501  0.00000000000E+00  0.00000000000E+00  0.48001755493E+03  0.48001755493E+03  0.00000000000E+00 0.  1.
         21   -1    0    0  501  502 -0.00000000000E+00 -0.00000000000E+00 -0.10331025624E+03  0.10331025624E+03  0.00000000000E+00 0.  1.
      99925    2    1    2    0    0 -0.27439692944E+02 -0.78413501165E+02  0.15640731658E+03  0.31671722599E+03  0.26257368231E+03 0.  0.
         25    1    3    3    0    0  0.37949802737E+01 -0.37110493494E+02  0.11806678413E+03  0.17600813679E+03  0.12509000000E+03 0.  0.
         25    1    1    2    0    0  0.27439692944E+02  0.78413501165E+02  0.22029998211E+03  0.26661058518E+03  0.12509000000E+03 0.  0.
         25    1    3    3    0    0 -0.31234673218E+02 -0.41303007671E+02  0.38340532451E+02  0.14070908920E+03  0.12509000000E+03 0.  0.
<mgrwt>
<rscale>  2 0.44537955E+03</rscale>
<asrwt>0</asrwt>
<pdfrwt beam="1">  1       21 0.70590816E-01 0.44537955E+03</pdfrwt>
<pdfrwt beam="2">  1       21 0.15192685E-01 0.44537955E+03</pdfrwt>
<totfact> 0.64481923E+04</totfact>
</mgrwt>
</event>
<event>
 6    0  0.1539497E-004  0.4644880E+03  0.7546771E-02  0.1023488E+00
         21   -1    0    0  502  501  0.00000000000E+00  0.00000000000E+00  0.94679926196E+02  0.94679926196E+02  0.00000000000E+00 0.  1.
         21   -1    0    0  501  502 -0.00000000000E+00 -0.00000000000E+00 -0.56968008664E+03  0.56968008664E+03  0.00000000000E+00 0.  1.
      99925    2    1    2    0    0 -0.68237873004E+02  0.97935127205E+02 -0.26137479885E+03  0.38953097567E+03  0.26300170927E+03 0.  0.
         25    1    3    3    0    0 -0.49316961015E+02  0.85273949981E+02 -0.11989324734E+03  0.19931309051E+03  0.12509000000E+03 0.  0.
         25    1    1    2    0    0  0.68237873004E+02 -0.97935127205E+02 -0.21362536159E+03  0.27482903716E+03  0.12509000000E+03 0.  0.
         25    1    3    3    0    0 -0.18920911989E+02  0.12661177225E+02 -0.14148155150E+03  0.19021788516E+03  0.12509000000E+03 0.  0.
<mgrwt>
<rscale>  2 0.46448797E+03</rscale>
<asrwt>0</asrwt>
<pdfrwt beam="1">  1       21 0.13923519E-01 0.46448797E+03</pdfrwt>
<pdfrwt beam="2">  1       21 0.83776483E-01 0.46448797E+03</pdfrwt>
<totfact> 0.50959959E+04</totfact>
</mgrwt>
</event>
<event>
 6    0  0.1539497E-004  0.4381167E+03  0.7546771E-02  0.1031326E+00
         21   -1    0    0  502  501  0.00000000000E+00  0.00000000000E+00  0.42853864992E+03  0.42853864992E+03  0.00000000000E+00 0.  1.
         21   -1    0    0  501  502 -0.00000000000E+00 -0.00000000000E+00 -0.11197722648E+03  0.11197722648E+03  0.00000000000E+00 0.  1.
      99925    2    1    2    0    0  0.70635875170E+02  0.51560128895E+02  0.25267324638E+03  0.37505566662E+03  0.26301161547E+03 0.  0.
         25    1    3    3    0    0  0.52493280051E+02 -0.26557798665E+01  0.15705140448E+03  0.20754577655E+03  0.12509000000E+03 0.  0.
         25    1    3    3    0    0  0.18142595119E+02  0.54215908762E+02  0.95621841904E+02  0.16750989007E+03  0.12509000000E+03 0.  0.
         25    1    1    2    0    0 -0.70635875170E+02 -0.51560128895E+02  0.63888177059E+02  0.16546020978E+03  0.12509000000E+03 0.  0.
<mgrwt>
<rscale>  2 0.43811674E+03</rscale>
<asrwt>0</asrwt>
<pdfrwt beam="1">  1       21 0.63020389E-01 0.43811674E+03</pdfrwt>
<pdfrwt beam="2">  1       21 0.16467239E-01 0.43811674E+03</pdfrwt>
<totfact> 0.71594407E+04</totfact>
</mgrwt>
</event>
<event>
 6    0  0.1539497E-004  0.4133468E+03  0.7546771E-02  0.1039254E+00
         21   -1    0    0  502  501  0.00000000000E+00  0.00000000000E+00  0.19273276183E+04  0.19273276183E+04  0.00000000000E+00 0.  1.
         21   -1    0    0  501  502 -0.00000000000E+00 -0.00000000000E+00 -0.22162234588E+02  0.22162234588E+02  0.00000000000E+00 0.  1.
      99925    2    1    2    0    0  0.37599793041E+02 -0.48714416283E+02  0.13758893776E+04  0.14021623116E+04  0.26306031566E+03 0.  0.
         25    1    3    3    0    0  0.77089687868E+01 -0.14614638797E+02  0.47380183470E+03  0.49031490140E+03  0.12509000000E+03 0.  0.
         25    1    3    3    0    0  0.29890824254E+02 -0.34099777486E+02  0.90208754294E+03  0.91184741017E+03  0.12509000000E+03 0.  0.
         25    1    1    2    0    0 -0.37599793041E+02  0.48714416283E+02  0.52927600609E+03  0.54732754134E+03  0.12509000000E+03 0.  0.
<mgrwt>
<rscale>  2 0.41334676E+03</rscale>
<asrwt>0</asrwt>
<pdfrwt beam="1">  1       21 0.28343042E+00 0.41334676E+03</pdfrwt>
<pdfrwt beam="2">  1       21 0.32591535E-02 0.41334676E+03</pdfrwt>
<totfact> 0.20391180E+04</totfact>
</mgrwt>
</event>
<event>
 5    0  0.1539497E-004  0.7507223E+03  0.7546771E-02  0.9634218E-01
         21   -1    0    0  502  501  0.00000000000E+00  0.00000000000E+00  0.35647923993E+03  0.35647923993E+03  0.00000000000E+00 0.  1.
         21   -1    0    0  501  502 -0.00000000000E+00 -0.00000000000E+00 -0.39524324366E+03  0.39524324366E+03  0.00000000000E+00 0.  1.
         25    1    1    2    0    0 -0.11510852928E+03  0.83738998137E+02  0.11017911301E+03  0.21920113678E+03  0.12509000000E+03 0.  0.
         25    1    1    2    0    0 -0.37878015788E+02  0.51460311808E+02  0.11105750173E+03  0.17906474964E+03  0.12509000000E+03 0.  0.
         25    1    1    2    0    0  0.15298654507E+03 -0.13519930995E+03 -0.26000061847E+03  0.35345659718E+03  0.12509000000E+03 0.  0.
<mgrwt>
<rscale>  2 0.75072235E+03</rscale>
<asrwt>0</asrwt>
<pdfrwt beam="1">  1       21 0.52423418E-01 0.75072235E+03</pdfrwt>
<pdfrwt beam="2">  1       21 0.58124006E-01 0.75072235E+03</pdfrwt>
<totfact> 0.79517097E+03</totfact>
</mgrwt>
</event>
<event>
 6    0  0.1539497E-004  0.3915407E+03  0.7546771E-02  0.1046749E+00
         21   -1    0    0  502  501  0.00000000000E+00  0.00000000000E+00  0.15335545114E+03  0.15335545114E+03  0.00000000000E+00 0.  1.
         21   -1    0    0  501  502 -0.00000000000E+00 -0.00000000000E+00 -0.24991637517E+03  0.24991637517E+03  0.00000000000E+00 0.  1.
      99925    2    1    2    0    0 -0.18466081670E+02  0.41750401422E+01 -0.81095165595E+02  0.27581546156E+03  0.26294356014E+03 0.  0.
         25    1    3    3    0    0 -0.18592019312E+02 -0.34070683141E+01 -0.81510767975E+02  0.15049513179E+03  0.12509000000E+03 0.  0.
         25    1    3    3    0    0  0.12593764177E+00  0.75821084564E+01  0.41560238011E+00  0.12532032977E+03  0.12509000000E+03 0.  0.
         25    1    1    2    0    0  0.18466081670E+02 -0.41750401422E+01 -0.15465758438E+02  0.12745636475E+03  0.12509000000E+03 0.  0.
<mgrwt>
<rscale>  2 0.39154074E+03</rscale>
<asrwt>0</asrwt>
<pdfrwt beam="1">  1       21 0.22552272E-01 0.39154074E+03</pdfrwt>
<pdfrwt beam="2">  1       21 0.36752408E-01 0.39154074E+03</pdfrwt>
<totfact> 0.12459347E+05</totfact>
</mgrwt>
</event>
<event>
 6    0  0.1539497E-004  0.4213980E+03  0.7546771E-02  0.1036612E+00
         21   -1    0    0  502  501  0.00000000000E+00  0.00000000000E+00  0.10577346090E+03  0.10577346090E+03  0.00000000000E+00 0. -1.
         21   -1    0    0  501  502 -0.00000000000E+00 -0.00000000000E+00 -0.41970885483E+03  0.41970885483E+03  0.00000000000E+00 0. -1.
      99925    2    1    2    0    0 -0.14705583310E+02  0.64536413247E+02 -0.15409105869E+03  0.31199010879E+03  0.26308282118E+03 0.  0.
         25    1    3    3    0    0 -0.64111640783E+01  0.59965121922E+02 -0.45679998155E+02  0.14618853992E+03  0.12509000000E+03 0.  0.
         25    1    1    2    0    0  0.14705583310E+02 -0.64536413247E+02 -0.15984433524E+03  0.21349220694E+03  0.12509000000E+03 0.  0.
         25    1    3    3    0    0 -0.82944192320E+01  0.45712913250E+01 -0.10841106053E+03  0.16580156887E+03  0.12509000000E+03 0.  0.
<mgrwt>
<rscale>  2 0.42139795E+03</rscale>
<asrwt>0</asrwt>
<pdfrwt beam="1">  1       21 0.15554921E-01 0.42139795E+03</pdfrwt>
<pdfrwt beam="2">  1       21 0.61721889E-01 0.42139795E+03</pdfrwt>
<totfact> 0.83644155E+04</totfact>
</mgrwt>
</event>
<event>
 6    0  0.1539497E-004  0.4325300E+03  0.7546771E-02  0.1033064E+00
         21   -1    0    0  502  501  0.00000000000E+00  0.00000000000E+00  0.48995067599E+02  0.48995067599E+02  0.00000000000E+00 0.  1.
         21   -1    0    0  501  502 -0.00000000000E+00 -0.00000000000E+00 -0.95459731467E+03  0.95459731467E+03  0.00000000000E+00 0.  1.
      99925    2    1    2    0    0 -0.71693195640E+02 -0.41847715434E+02 -0.66568800962E+03  0.72057737379E+03  0.26305908061E+03 0.  0.
         25    1    3    3    0    0 -0.32029705667E+02 -0.95568569240E+01 -0.42800211347E+03  0.44715830842E+03  0.12509000000E+03 0.  0.
         25    1    1    2    0    0  0.71693195640E+02  0.41847715434E+02 -0.23991423746E+03  0.28301500847E+03  0.12509000000E+03 0.  0.
         25    1    3    3    0    0 -0.39663489973E+02 -0.32290858510E+02 -0.23768589615E+03  0.27341906537E+03  0.12509000000E+03 0.  0.
<mgrwt>
<rscale>  2 0.43253005E+03</rscale>
<asrwt>0</asrwt>
<pdfrwt beam="1">  1       21 0.72051580E-02 0.43253005E+03</pdfrwt>
<pdfrwt beam="2">  1       21 0.14038194E+00 0.43253005E+03</pdfrwt>
<totfact> 0.46699376E+04</totfact>
</mgrwt>
</event>
<event>
 6    0  0.1539497E-004  0.4046070E+03  0.7546771E-02  0.1042196E+00
         21   -1    0    0  502  501  0.00000000000E+00  0.00000000000E+00  0.13026699047E+04  0.13026699047E+04  0.00000000000E+00 0.  1.
         21   -1    0    0  501  502 -0.00000000000E+00 -0.00000000000E+00 -0.31417560885E+02  0.31417560885E+02  0.00000000000E+00 0.  1.
      99925    2    1    2    0    0 -0.43377842836E+02 -0.14890071115E+02  0.93537633950E+03  0.97275168015E+03  0.26308474540E+03 0.  0.
         25    1    1    2    0    0  0.43377842836E+02  0.14890071115E+02  0.33587600433E+03  0.36133578546E+03  0.12509000000E+03 0.  0.
         25    1    3    3    0    0  0.45386026268E+00  0.24741953934E+02  0.40292430525E+03  0.42262024814E+03  0.12509000000E+03 0.  0.
         25    1    3    3    0    0 -0.43831703099E+02 -0.39632025049E+02  0.53245203425E+03  0.55013143201E+03  0.12509000000E+03 0.  0.
<mgrwt>
<rscale>  2 0.40460702E+03</rscale>
<asrwt>0</asrwt>
<pdfrwt beam="1">  1       21 0.19156907E+00 0.40460702E+03</pdfrwt>
<pdfrwt beam="2">  1       21 0.46202304E-02 0.40460702E+03</pdfrwt>
<totfact> 0.42518849E+04</totfact>
</mgrwt>
</event>
<event>
 6    0  0.1539497E-004  0.4169094E+03  0.7546771E-02  0.1038077E+00
         21   -1    0    0  502  501  0.00000000000E+00  0.00000000000E+00  0.36792911042E+03  0.36792911042E+03  0.00000000000E+00 0.  1.
         21   -1    0    0  501  502 -0.00000000000E+00 -0.00000000000E+00 -0.11810256285E+03  0.11810256285E+03  0.00000000000E+00 0.  1.
      99925    2    1    2    0    0  0.31636585380E+02 -0.19813890171E+02  0.91766532100E+02  0.28103425775E+03  0.26299371445E+03 0.  0.
         25    1    3    3    0    0 -0.67103827596E+01  0.15553466425E+02  0.68172884390E+02  0.14346424579E+03  0.12509000000E+03 0.  0.
         25    1    1    2    0    0 -0.31636585380E+02  0.19813890171E+02  0.15806001547E+03  0.20499741552E+03  0.12509000000E+03 0.  0.
         25    1    3    3    0    0  0.38346968140E+02 -0.35367356596E+02  0.23593647710E+02  0.13757001196E+03  0.12509000000E+03 0.  0.
<mgrwt>
<rscale>  2 0.41690944E+03</rscale>
<asrwt>0</asrwt>
<pdfrwt beam="1">  1       21 0.54107222E-01 0.41690944E+03</pdfrwt>
<pdfrwt beam="2">  1       21 0.17368024E-01 0.41690944E+03</pdfrwt>
<totfact> 0.90737045E+04</totfact>
</mgrwt>
</event>
<event>
 6    0  0.1539497E-004  0.4125612E+03  0.7546771E-02  0.1039515E+00
         21   -1    0    0  502  501  0.00000000000E+00  0.00000000000E+00  0.36389272101E+03  0.36389272101E+03  0.00000000000E+00 0. -1.
         21   -1    0    0  501  502 -0.00000000000E+00 -0.00000000000E+00 -0.11693471972E+03  0.11693471972E+03  0.00000000000E+00 0. -1.
      99925    2    1    2    0    0 -0.26539665260E+02 -0.60174477780E+02  0.15925899800E+03  0.31450262332E+03  0.26310292667E+03 0.  0.
         25    1    1    2    0    0  0.26539665260E+02  0.60174477780E+02  0.87699003284E+02  0.16632481741E+03  0.12509000000E+03 0.  0.
         25    1    3    3    0    0 -0.37876030348E+02 -0.40553265199E+02  0.46370361010E+02  0.14448833681E+03  0.12509000000E+03 0.  0.
         25    1    3    3    0    0  0.11336365088E+02 -0.19621212581E+02  0.11288863699E+03  0.17001428651E+03  0.12509000000E+03 0.  0.
<mgrwt>
<rscale>  2 0.41256124E+03</rscale>
<asrwt>0</asrwt>
<pdfrwt beam="1">  1       21 0.53513635E-01 0.41256124E+03</pdfrwt>
<pdfrwt beam="2">  1       21 0.17196282E-01 0.41256124E+03</pdfrwt>
<totfact> 0.94742854E+04</totfact>
</mgrwt>
</event>
<event>
 6    0  0.1539497E-004  0.3966193E+03  0.7546771E-02  0.1044957E+00
         21   -1    0    0  502  501  0.00000000000E+00  0.00000000000E+00  0.67911697081E+02  0.67911697081E+02  0.00000000000E+00 0. -1.
         21   -1    0    0  501  502 -0.00000000000E+00 -0.00000000000E+00 -0.57908606885E+03  0.57908606885E+03  0.00000000000E+00 0. -1.
      99925    2    1    2    0    0 -0.14770645840E+02 -0.28720516859E+02 -0.30864698174E+03  0.40677309634E+03  0.26297975683E+03 0.  0.
         25    1    3    3    0    0 -0.24928678550E+02 -0.19935647558E+02 -0.10069067596E+03  0.16372229348E+03  0.12509000000E+03 0.  0.
         25    1    1    2    0    0  0.14770645840E+02  0.28720516859E+02 -0.20252739003E+03  0.24022466959E+03  0.12509000000E+03 0.  0.
         25    1    3    3    0    0  0.10158032710E+02 -0.87848693007E+01 -0.20795630578E+03  0.24305080286E+03  0.12509000000E+03 0.  0.
<mgrwt>
<rscale>  2 0.39661930E+03</rscale>
<asrwt>0</asrwt>
<pdfrwt beam="1">  1       21 0.99870142E-02 0.39661930E+03</pdfrwt>
<pdfrwt beam="2">  1       21 0.85159716E-01 0.39661930E+03</pdfrwt>
<totfact> 0.91110063E+04</totfact>
</mgrwt>
</event>
<event>
 6    0  0.1539497E-004  0.4004891E+03  0.7546771E-02  0.1043610E+00
         21   -1    0    0  502  501  0.00000000000E+00  0.00000000000E+00  0.20849443924E+03  0.20849443924E+03  0.00000000000E+00 0. -1.
         21   -1    0    0  501  502 -0.00000000000E+00 -0.00000000000E+00 -0.19232114444E+03  0.19232114444E+03  0.00000000000E+00 0. -1.
      99925    2    1    2    0    0 -0.25031735538E+02  0.20302152417E+01 -0.28189164547E+02  0.26573691972E+03  0.26304138828E+03 0.  0.
         25    1    3    3    0    0 -0.45954574222E+02 -0.86362563301E+01 -0.35721623730E+02  0.13823874391E+03  0.12509000000E+03 0.  0.
         25    1    1    2    0    0  0.25031735538E+02 -0.20302152417E+01  0.44362459349E+02  0.13507866396E+03  0.12509000000E+03 0.  0.
         25    1    3    3    0    0  0.20922838683E+02  0.10666471572E+02  0.75324591824E+01  0.12749817581E+03  0.12509000000E+03 0.  0.
<mgrwt>
<rscale>  2 0.40048915E+03</rscale>
<asrwt>0</asrwt>
<pdfrwt beam="1">  1       21 0.30660947E-01 0.40048915E+03</pdfrwt>
<pdfrwt beam="2">  1       21 0.28282521E-01 0.40048915E+03</pdfrwt>
<totfact> 0.11526286E+05</totfact>
</mgrwt>
</event>
<event>
 6    0  0.1539497E-004  0.4230285E+03  0.7546771E-02  0.1036085E+00
         21   -1    0    0  502  501  0.00000000000E+00  0.00000000000E+00  0.40280312445E+02  0.40280312445E+02  0.00000000000E+00 0.  1.
         21   -1    0    0  501  502 -0.00000000000E+00 -0.00000000000E+00 -0.11106736225E+04  0.11106736225E+04  0.00000000000E+00 0.  1.
      99925    2    1    2    0    0 -0.41985251525E+02 -0.25333928931E+02 -0.86614221557E+03  0.90647369647E+03  0.26284530719E+03 0.  0.
         25    1    3    3    0    0 -0.52489147961E+02 -0.18859885838E+02 -0.53572295561E+03  0.55295334271E+03  0.12509000000E+03 0.  0.
         25    1    1    2    0    0  0.41985251525E+02  0.25333928931E+02 -0.20425109446E+03  0.24448023844E+03  0.12509000000E+03 0.  0.
         25    1    3    3    0    0  0.10503896435E+02 -0.64740430932E+01 -0.33041925996E+03  0.35352035376E+03  0.12509000000E+03 0.  0.
<mgrwt>
<rscale>  2 0.42302851E+03</rscale>
<asrwt>0</asrwt>
<pdfrwt beam="1">  1       21 0.59235753E-02 0.42302851E+03</pdfrwt>
<pdfrwt beam="2">  1       21 0.16333436E+00 0.42302851E+03</pdfrwt>
<totfact> 0.43654208E+04</totfact>
</mgrwt>
</event>
<event>
 6    0  0.1539497E-004  0.4537918E+03  0.7546771E-02  0.1026597E+00
         21   -1    0    0  502  501  0.00000000000E+00  0.00000000000E+00  0.15255497770E+03  0.15255497770E+03  0.00000000000E+00 0. -1.
         21   -1    0    0  501  502 -0.00000000000E+00 -0.00000000000E+00 -0.33746358816E+03  0.33746358816E+03  0.00000000000E+00 0. -1.
      99925    2    1    2    0    0  0.23957730407E+02  0.10880821591E+03 -0.12900771272E+03  0.31342406095E+03  0.26301796773E+03 0.  0.
         25    1    1    2    0    0 -0.23957730407E+02 -0.10880821591E+03 -0.55900897733E+02  0.17659450490E+03  0.12509000000E+03 0.  0.
         25    1    3    3    0    0 -0.28261715116E+02  0.51380671600E+02 -0.69325025832E+02  0.15457090691E+03  0.12509000000E+03 0.  0.
         25    1    3    3    0    0  0.52219445523E+02  0.57427544306E+02 -0.59682686892E+02  0.15885315405E+03  0.12509000000E+03 0.  0.
<mgrwt>
<rscale>  2 0.45379180E+03</rscale>
<asrwt>0</asrwt>
<pdfrwt beam="1">  1       21 0.22434556E-01 0.45379180E+03</pdfrwt>
<pdfrwt beam="2">  1       21 0.49626998E-01 0.45379180E+03</pdfrwt>
<totfact> 0.66614376E+04</totfact>
</mgrwt>
</event>
<event>
 6    0  0.1539497E-004  0.4074321E+03  0.7546771E-02  0.1041236E+00
         21   -1    0    0  502  501  0.00000000000E+00  0.00000000000E+00  0.35381921921E+02  0.35381921921E+02  0.00000000000E+00 0. -1.
         21   -1    0    0  501  502 -0.00000000000E+00 -0.00000000000E+00 -0.11729219330E+04  0.11729219330E+04  0.00000000000E+00 0. -1.
      99925    2    1    2    0    0 -0.79521536158E+01  0.57039987970E+02 -0.79657461514E+03  0.84057881321E+03  0.26215420415E+03 0.  0.
         25    1    1    2    0    0  0.79521536158E+01 -0.57039987970E+02 -0.34096539594E+03  0.36772504172E+03  0.12509000000E+03 0.  0.
         25    1    3    3    0    0  0.11773075159E+02  0.64271979702E+02 -0.44336605950E+03  0.46528535705E+03  0.12509000000E+03 0.  0.
         25    1    3    3    0    0 -0.19725228775E+02 -0.72319917321E+01 -0.35320855564E+03  0.37529345615E+03  0.12509000000E+03 0.  0.
<mgrwt>
<rscale>  2 0.40743212E+03</rscale>
<asrwt>0</asrwt>
<pdfrwt beam="1">  1       21 0.52032233E-02 0.40743212E+03</pdfrwt>
<pdfrwt beam="2">  1       21 0.17248854E+00 0.40743212E+03</pdfrwt>
<totfact> 0.47054059E+04</totfact>
</mgrwt>
</event>
<event>
 6    0  0.1539497E-004  0.4340631E+03  0.7546771E-02  0.1032584E+00
         21   -1    0    0  502  501  0.00000000000E+00  0.00000000000E+00  0.86788561703E+02  0.86788561703E+02  0.00000000000E+00 0.  1.
         21   -1    0    0  501  502 -0.00000000000E+00 -0.00000000000E+00 -0.54272924622E+03  0.54272924622E+03  0.00000000000E+00 0.  1.
      99925    2    1    2    0    0 -0.62647437565E+02  0.22447847535E+02 -0.20038428406E+03  0.33731036585E+03  0.26305097284E+03 0.  0.
         25    1    3    3    0    0 -0.67372418391E+02 -0.40479784350E+01 -0.89266743390E+02  0.16784364291E+03  0.12509000000E+03 0.  0.
         25    1    3    3    0    0  0.47249808261E+01  0.26495825970E+02 -0.11111754067E+03  0.16946672294E+03  0.12509000000E+03 0.  0.
         25    1    1    2    0    0  0.62647437565E+02 -0.22447847535E+02 -0.25555640045E+03  0.29220744208E+03  0.12509000000E+03 0.  0.
<mgrwt>
<rscale>  2 0.43406309E+03</rscale>
<asrwt>0</asrwt>
<pdfrwt beam="1">  1       21 0.12763024E-01 0.43406309E+03</pdfrwt>
<pdfrwt beam="2">  1       21 0.79813126E-01 0.43406309E+03</pdfrwt>
<totfact> 0.67356034E+04</totfact>
</mgrwt>
</event>
<event>
 6    0  0.1539497E-004  0.4104154E+03  0.7546771E-02  0.1040232E+00
         21   -1    0    0  502  501  0.00000000000E+00  0.00000000000E+00  0.84976273738E+03  0.84976273738E+03  0.00000000000E+00 0.  1.
         21   -1    0    0  501  502 -0.00000000000E+00 -0.00000000000E+00 -0.49555251425E+02  0.49555251425E+02  0.00000000000E+00 0.  1.
      99925    2    1    2    0    0 -0.32672882502E+02  0.47302872633E+02  0.46927743236E+03  0.54089465323E+03  0.26275585315E+03 0.  0.
         25    1    1    2    0    0  0.32672882502E+02 -0.47302872633E+02  0.33093005360E+03  0.35842333557E+03  0.12509000000E+03 0.  0.
         25    1    3    3    0    0 -0.39263097905E+02  0.29832726219E+02  0.17580440009E+03  0.22132843830E+03  0.12509000000E+03 0.  0.
         25    1    3    3    0    0  0.65902154028E+01  0.17470146414E+02  0.29347303227E+03  0.31956621493E+03  0.12509000000E+03 0.  0.
<mgrwt>
<rscale>  2 0.41041543E+03</rscale>
<asrwt>0</asrwt>
<pdfrwt beam="1">  1       21 0.12496510E+00 0.41041543E+03</pdfrwt>
<pdfrwt beam="2">  1       21 0.72875375E-02 0.41041543E+03</pdfrwt>
<totfact> 0.62329162E+04</totfact>
</mgrwt>
</event>
<event>
 6    0  0.1539497E-004  0.4575168E+03  0.7546771E-02  0.1025504E+00
         21   -1    0    0  502  501  0.00000000000E+00  0.00000000000E+00  0.10416354745E+04  0.10416354745E+04  0.00000000000E+00 0. -1.
         21   -1    0    0  501  502 -0.00000000000E+00 -0.00000000000E+00 -0.50238694429E+02  0.50238694429E+02  0.00000000000E+00 0. -1.
      99925    2    1    2    0    0 -0.38654383037E+02  0.10310878743E+03  0.70551473203E+03  0.76096385349E+03  0.26303871546E+03 0.  0.
         25    1    3    3    0    0 -0.21330709452E+01  0.43099374726E+02  0.24277681131E+03  0.27649628262E+03  0.12509000000E+03 0.  0.
         25    1    3    3    0    0 -0.36521312092E+02  0.60009412706E+02  0.46273792073E+03  0.48446757087E+03  0.12509000000E+03 0.  0.
         25    1    1    2    0    0  0.38654383037E+02 -0.10310878743E+03  0.28588204805E+03  0.33091031545E+03  0.12509000000E+03 0.  0.
<mgrwt>
<rscale>  2 0.45751680E+03</rscale>
<asrwt>0</asrwt>
<pdfrwt beam="1">  1       21 0.15318167E+00 0.45751680E+03</pdfrwt>
<pdfrwt beam="2">  1       21 0.73880439E-02 0.45751680E+03</pdfrwt>
<totfact> 0.35083350E+04</totfact>
</mgrwt>
</event>
<event>
 6    0  0.1539497E-004  0.4013217E+03  0.7546771E-02  0.1043323E+00
         21   -1    0    0  502  501  0.00000000000E+00  0.00000000000E+00  0.79575081457E+02  0.79575081457E+02  0.00000000000E+00 0.  1.
         21   -1    0    0  501  502 -0.00000000000E+00 -0.00000000000E+00 -0.50599730627E+03  0.50599730627E+03  0.00000000000E+00 0.  1.
      99925    2    1    2    0    0  0.36045148048E+02  0.29814736592E+02 -0.30140963569E+03  0.40264118001E+03  0.26283831559E+03 0.  0.
         25    1    1    2    0    0 -0.36045148048E+02 -0.29814736592E+02 -0.12501258913E+03  0.18293120771E+03  0.12509000000E+03 0.  0.
         25    1    3    3    0    0  0.52295786668E+02 -0.63803607586E+01 -0.15195726378E+03  0.20375003417E+03  0.12509000000E+03 0.  0.
         25    1    3    3    0    0 -0.16250638620E+02  0.36195097350E+02 -0.14945237190E+03  0.19889114585E+03  0.12509000000E+03 0.  0.
<mgrwt>
<rscale>  2 0.40132170E+03</rscale>
<asrwt>0</asrwt>
<pdfrwt beam="1">  1       21 0.11702218E-01 0.40132170E+03</pdfrwt>
<pdfrwt beam="2">  1       21 0.74411371E-01 0.40132170E+03</pdfrwt>
<totfact> 0.93277492E+04</totfact>
</mgrwt>
</event>
<event>
 6    0  0.1539497E-004  0.4669375E+03  0.7546771E-02  0.1022788E+00
         21   -1    0    0  502  501  0.00000000000E+00  0.00000000000E+00  0.49272849968E+02  0.49272849968E+02  0.00000000000E+00 0. -1.
         21   -1    0    0  501  502 -0.00000000000E+00 -0.00000000000E+00 -0.11062412006E+04  0.11062412006E+04  0.00000000000E+00 0. -1.
      99925    2    1    2    0    0  0.10396181050E+03  0.61295247610E+02 -0.72893348560E+03  0.78427350026E+03  0.26301279693E+03 0.  0.
         25    1    3    3    0    0  0.28621615148E+02  0.63813141630E+02 -0.36546458474E+03  0.39255978487E+03  0.12509000000E+03 0.  0.
         25    1    3    3    0    0  0.75340195355E+02 -0.25178940198E+01 -0.36346890087E+03  0.39171371539E+03  0.12509000000E+03 0.  0.
         25    1    1    2    0    0 -0.10396181050E+03 -0.61295247610E+02 -0.32803486505E+03  0.37124055033E+03  0.12509000000E+03 0.  0.
<mgrwt>
<rscale>  2 0.46693750E+03</rscale>
<asrwt>0</asrwt>
<pdfrwt beam="1">  1       21 0.72460078E-02 0.46693750E+03</pdfrwt>
<pdfrwt beam="2">  1       21 0.16268252E+00 0.46693750E+03</pdfrwt>
<totfact> 0.30646819E+04</totfact>
</mgrwt>
</event>
<event>
 6    0  0.1539497E-004  0.4096542E+03  0.7546771E-02  0.1040487E+00
         21   -1    0    0  502  501  0.00000000000E+00  0.00000000000E+00  0.26425405194E+03  0.26425405194E+03  0.00000000000E+00 0. -1.
         21   -1    0    0  501  502 -0.00000000000E+00 -0.00000000000E+00 -0.15876442264E+03  0.15876442264E+03  0.00000000000E+00 0. -1.
      99925    2    1    2    0    0 -0.60740597528E+02  0.16215753540E+01  0.81004808121E+02  0.28181272305E+03  0.26299160109E+03 0.  0.
         25    1    1    2    0    0  0.60740597528E+02 -0.16215753540E+01  0.24484821173E+02  0.14120575152E+03  0.12509000000E+03 0.  0.
         25    1    3    3    0    0 -0.18923863345E+01  0.30331499650E+02  0.38622872464E+02  0.13439797385E+03  0.12509000000E+03 0.  0.
         25    1    3    3    0    0 -0.58848211193E+02 -0.28709924296E+02  0.42381935657E+02  0.14741474921E+03  0.12509000000E+03 0.  0.
<mgrwt>
<rscale>  2 0.40965421E+03</rscale>
<asrwt>0</asrwt>
<pdfrwt beam="1">  1       21 0.38860890E-01 0.40965421E+03</pdfrwt>
<pdfrwt beam="2">  1       21 0.23347709E-01 0.40965421E+03</pdfrwt>
<totfact> 0.10365085E+05</totfact>
</mgrwt>
</event>
<event>
 6    0  0.1539497E-004  0.3993326E+03  0.7546771E-02  0.1044011E+00
         21   -1    0    0  502  501  0.00000000000E+00  0.00000000000E+00  0.43124217470E+03  0.43124217470E+03  0.00000000000E+00 0. -1.
         21   -1    0    0  501  502 -0.00000000000E+00 -0.00000000000E+00 -0.92446061051E+02  0.92446061051E+02  0.00000000000E+00 0. -1.
      99925    2    1    2    0    0 -0.37511155690E+02  0.18330744905E+02  0.24073916951E+03  0.35935389545E+03  0.26350857941E+03 0.  0.
         25    1    3    3    0    0 -0.38908857802E+02  0.17675764426E+02  0.75932358405E+02  0.15244527876E+03  0.12509000000E+03 0.  0.
         25    1    3    3    0    0  0.13977021122E+01  0.65498047943E+00  0.16480681111E+03  0.20690861668E+03  0.12509000000E+03 0.  0.
         25    1    1    2    0    0  0.37511155690E+02 -0.18330744905E+02  0.98056944132E+02  0.16433434030E+03  0.12509000000E+03 0.  0.
<mgrwt>
<rscale>  2 0.39933265E+03</rscale>
<asrwt>0</asrwt>
<pdfrwt beam="1">  1       21 0.63417966E-01 0.39933265E+03</pdfrwt>
<pdfrwt beam="2">  1       21 0.13595009E-01 0.39933265E+03</pdfrwt>
<totfact> 0.10151661E+05</totfact>
</mgrwt>
</event>
<event>
 6    0  0.1539497E-004  0.4163877E+03  0.7546771E-02  0.1038248E+00
         21   -1    0    0  502  501  0.00000000000E+00  0.00000000000E+00  0.15448499253E+03  0.15448499253E+03  0.00000000000E+00 0. -1.
         21   -1    0    0  501  502 -0.00000000000E+00 -0.00000000000E+00 -0.28057535158E+03  0.28057535158E+03  0.00000000000E+00 0. -1.
      99925    2    1    2    0    0  0.41839162274E+02  0.39245268178E+02 -0.12607686019E+03  0.29744415735E+03  0.26322413547E+03 0.  0.
         25    1    1    2    0    0 -0.41839162274E+02 -0.39245268178E+02 -0.13498858522E-01  0.13761618675E+03  0.12509000000E+03 0.  0.
         25    1    3    3    0    0  0.55740501745E+02 -0.97548295091E+00 -0.56904465302E+02  0.14830233098E+03  0.12509000000E+03 0.  0.
         25    1    3    3    0    0 -0.13901339471E+02  0.40220751129E+02 -0.69172394889E+02  0.14914182638E+03  0.12509000000E+03 0.  0.
<mgrwt>
<rscale>  2 0.41638771E+03</rscale>
<asrwt>0</asrwt>
<pdfrwt beam="1">  1       21 0.22718382E-01 0.41638771E+03</pdfrwt>
<pdfrwt beam="2">  1       21 0.41261080E-01 0.41638771E+03</pdfrwt>
<totfact> 0.96451827E+04</totfact>
</mgrwt>
</event>
<event>
 6    0  0.1539497E-004  0.4548119E+03  0.7546771E-02  0.1026297E+00
         21   -1    0    0  502  501  0.00000000000E+00  0.00000000000E+00  0.13084630963E+03  0.13084630963E+03  0.00000000000E+00 0.  1.
         21   -1    0    0  501  502 -0.00000000000E+00 -0.00000000000E+00 -0.39522303985E+03  0.39522303985E+03  0.00000000000E+00 0.  1.
      99925    2    1    2    0    0  0.28297587488E+02 -0.74468758285E+02 -0.25869303977E+03  0.37765721435E+03  0.26335628587E+03 0.  0.
         25    1    3    3    0    0 -0.22129139613E+02 -0.56640504095E+02 -0.12924015722E+03  0.18986408787E+03  0.12509000000E+03 0.  0.
         25    1    1    2    0    0 -0.28297587488E+02  0.74468758285E+02 -0.56836904564E+01  0.14841213514E+03  0.12509000000E+03 0.  0.
         25    1    3    3    0    0  0.50426727102E+02 -0.17828254190E+02 -0.12945288255E+03  0.18779312648E+03  0.12509000000E+03 0.  0.
<mgrwt>
<rscale>  2 0.45481194E+03</rscale>
<asrwt>0</asrwt>
<pdfrwt beam="1">  1       21 0.19242104E-01 0.45481194E+03</pdfrwt>
<pdfrwt beam="2">  1       21 0.58121036E-01 0.45481194E+03</pdfrwt>
<totfact> 0.63568105E+04</totfact>
</mgrwt>
</event>
<event>
 6    0  0.1539497E-004  0.4296176E+03  0.7546771E-02  0.1033981E+00
         21   -1    0    0  502  501  0.00000000000E+00  0.00000000000E+00  0.18925865937E+03  0.18925865937E+03  0.00000000000E+00 0.  1.
         21   -1    0    0  501  502 -0.00000000000E+00 -0.00000000000E+00 -0.24380822482E+03  0.24380822482E+03  0.00000000000E+00 0.  1.
      99925    2    1    2    0    0  0.83433959929E+02 -0.14227474567E+02 -0.13807978518E+02  0.27663468895E+03  0.26300654775E+03 0.  0.
         25    1    3    3    0    0  0.55290901801E+02  0.27261193878E+02 -0.23927531245E+02  0.14149307886E+03  0.12509000000E+03 0.  0.
         25    1    3    3    0    0  0.28143058128E+02 -0.41488668445E+02  0.10119552727E+02  0.13514161009E+03  0.12509000000E+03 0.  0.
         25    1    1    2    0    0 -0.83433959929E+02  0.14227474567E+02 -0.40741586940E+02  0.15643219524E+03  0.12509000000E+03 0.  0.
<mgrwt>
<rscale>  2 0.42961759E+03</rscale>
<asrwt>0</asrwt>
<pdfrwt beam="1">  1       21 0.27832156E-01 0.42961759E+03</pdfrwt>
<pdfrwt beam="2">  1       21 0.35854151E-01 0.42961759E+03</pdfrwt>
<totfact> 0.86398103E+04</totfact>
</mgrwt>
</event>
<event>
 6    0  0.1539497E-004  0.4759413E+03  0.7546771E-02  0.1020257E+00
         21   -1    0    0  502  501  0.00000000000E+00  0.00000000000E+00  0.84792398731E+02  0.84792398731E+02  0.00000000000E+00 0. -1.
         21   -1    0    0  501  502 -0.00000000000E+00 -0.00000000000E+00 -0.66786673941E+03  0.66786673941E+03  0.00000000000E+00 0. -1.
      99925    2    1    2    0    0 -0.21447348188E+01  0.31173135649E+02 -0.15687556700E+03  0.30738476536E+03  0.26248635427E+03 0.  0.
         25    1    1    2    0    0  0.21447348188E+01 -0.31173135649E+02 -0.42619877368E+03  0.44527437278E+03  0.12509000000E+03 0.  0.
         25    1    3    3    0    0 -0.20508950829E+02  0.50441168200E+02 -0.79005640750E+02  0.15765255432E+03  0.12509000000E+03 0.  0.
         25    1    3    3    0    0  0.18364216010E+02 -0.19268032552E+02 -0.77869926254E+02  0.14973221104E+03  0.12509000000E+03 0.  0.
<mgrwt>
<rscale>  2 0.47594127E+03</rscale>
<asrwt>0</asrwt>
<pdfrwt beam="1">  1       21 0.12469470E-01 0.47594127E+03</pdfrwt>
<pdfrwt beam="2">  1       21 0.98215698E-01 0.47594127E+03</pdfrwt>
<totfact> 0.42667270E+04</totfact>
</mgrwt>
</event>
<event>
 6    0  0.1539497E-004  0.3907885E+03  0.7546771E-02  0.1047017E+00
         21   -1    0    0  502  501  0.00000000000E+00  0.00000000000E+00  0.37933325269E+03  0.37933325269E+03  0.00000000000E+00 0. -1.
         21   -1    0    0  501  502 -0.00000000000E+00 -0.00000000000E+00 -0.10064740550E+03  0.10064740550E+03  0.00000000000E+00 0. -1.
      99925    2    1    2    0    0  0.75599051076E+01 -0.10741878756E+02  0.17270054859E+03  0.31550290364E+03  0.26371208276E+03 0.  0.
         25    1    3    3    0    0 -0.23445593491E+02  0.18154676260E+02  0.11047307959E+03  0.16950250010E+03  0.12509000000E+03 0.  0.
         25    1    1    2    0    0 -0.75599051076E+01  0.10741878756E+02  0.10598529860E+03  0.16447775456E+03  0.12509000000E+03 0.  0.
         25    1    3    3    0    0  0.31005498599E+02 -0.28896555016E+02  0.62227469001E+02  0.14600040354E+03  0.12509000000E+03 0.  0.
<mgrwt>
<rscale>  2 0.39078847E+03</rscale>
<asrwt>0</asrwt>
<pdfrwt beam="1">  1       21 0.55784302E-01 0.39078847E+03</pdfrwt>
<pdfrwt beam="2">  1       21 0.14801089E-01 0.39078847E+03</pdfrwt>
<totfact> 0.11504065E+05</totfact>
</mgrwt>
</event>
<event>
 6    0  0.1539497E-004  0.4354690E+03  0.7546771E-02  0.1032146E+00
         21   -1    0    0  502  501  0.00000000000E+00  0.00000000000E+00  0.53198840377E+02  0.53198840377E+02  0.00000000000E+00 0. -1.
         21   -1    0    0  501  502 -0.00000000000E+00 -0.00000000000E+00 -0.89115323829E+03  0.89115323829E+03  0.00000000000E+00 0. -1.
      99925    2    1    2    0    0 -0.85244966170E+02  0.93228881635E+01 -0.61812882620E+03  0.67728577495E+03  0.26320933622E+03 0.  0.
         25    1    3    3    0    0 -0.52734136543E+02 -0.34508887848E+02 -0.29780411259E+03  0.32909960510E+03  0.12509000000E+03 0.  0.
         25    1    1    2    0    0  0.85244966170E+02 -0.93228881635E+01 -0.21982557171E+03  0.26706630371E+03  0.12509000000E+03 0.  0.
         25    1    3    3    0    0 -0.32510829626E+02  0.43831776011E+02 -0.32032471361E+03  0.34818616986E+03  0.12509000000E+03 0.  0.
<mgrwt>
<rscale>  2 0.43546903E+03</rscale>
<asrwt>0</asrwt>
<pdfrwt beam="1">  1       21 0.78233593E-02 0.43546903E+03</pdfrwt>
<pdfrwt beam="2">  1       21 0.13105194E+00 0.43546903E+03</pdfrwt>
<totfact> 0.48342254E+04</totfact>
</mgrwt>
</event>
<event>
 6    0  0.1539497E-004  0.3957038E+03  0.7546771E-02  0.1045278E+00
         21   -1    0    0  502  501  0.00000000000E+00  0.00000000000E+00  0.41471153356E+03  0.41471153356E+03  0.00000000000E+00 0.  1.
         21   -1    0    0  501  502 -0.00000000000E+00 -0.00000000000E+00 -0.94391831207E+02  0.94391831207E+02  0.00000000000E+00 0.  1.
      99925    2    1    2    0    0  0.20298615620E+02 -0.29418622582E+02  0.20497673829E+03  0.33523848445E+03  0.26285336038E+03 0.  0.
         25    1    3    3    0    0 -0.17755652349E+02  0.97687656509E+01  0.11954953472E+03  0.17421335002E+03  0.12509000000E+03 0.  0.
         25    1    3    3    0    0  0.38054267969E+02 -0.39187388233E+02  0.85427203572E+02  0.16102513443E+03  0.12509000000E+03 0.  0.
         25    1    1    2    0    0 -0.20298615620E+02  0.29418622582E+02  0.11534296406E+03  0.17386488032E+03  0.12509000000E+03 0.  0.
<mgrwt>
<rscale>  2 0.39570383E+03</rscale>
<asrwt>0</asrwt>
<pdfrwt beam="1">  1       21 0.60986989E-01 0.39570383E+03</pdfrwt>
<pdfrwt beam="2">  1       21 0.13881152E-01 0.39570383E+03</pdfrwt>
<totfact> 0.10655518E+05</totfact>
</mgrwt>
</event>
<event>
 6    0  0.1539497E-004  0.4048700E+03  0.7546771E-02  0.1042106E+00
         21   -1    0    0  502  501  0.00000000000E+00  0.00000000000E+00  0.19803346803E+03  0.19803346803E+03  0.00000000000E+00 0.  1.
         21   -1    0    0  501  502 -0.00000000000E+00 -0.00000000000E+00 -0.20693436978E+03  0.20693436978E+03  0.00000000000E+00 0.  1.
      99925    2    1    2    0    0  0.51960640573E+02 -0.11776584114E+02 -0.16005991611E+02  0.26881870448E+03  0.26299944489E+03 0.  0.
         25    1    3    3    0    0  0.42836836501E+02 -0.35098171786E+02 -0.31292705052E+02  0.14033395068E+03  0.12509000000E+03 0.  0.
         25    1    3    3    0    0  0.91238040725E+01  0.23321587672E+02  0.15286713441E+02  0.12848475380E+03  0.12509000000E+03 0.  0.
         25    1    1    2    0    0 -0.51960640573E+02  0.11776584114E+02  0.71050898596E+01  0.13614913332E+03  0.12509000000E+03 0.  0.
<mgrwt>
<rscale>  2 0.40487001E+03</rscale>
<asrwt>0</asrwt>
<pdfrwt beam="1">  1       21 0.29122569E-01 0.40487001E+03</pdfrwt>
<pdfrwt beam="2">  1       21 0.30431525E-01 0.40487001E+03</pdfrwt>
<totfact> 0.11033662E+05</totfact>
</mgrwt>
</event>
<event>
 6    0  0.1539497E-004  0.5245667E+03  0.7546771E-02  0.1007558E+00
         21   -1    0    0  502  501  0.00000000000E+00  0.00000000000E+00  0.28900453865E+03  0.28900453865E+03  0.00000000000E+00 0. -1.
         21   -1    0    0  501  502 -0.00000000000E+00 -0.00000000000E+00 -0.23803282293E+03  0.23803282293E+03  0.00000000000E+00 0. -1.
      99925    2    1    2    0    0  0.18005126132E+02  0.43371399335E+02 -0.13399570202E+03  0.29885822894E+03  0.26297553118E+03 0.  0.
         25    1    3    3    0    0  0.16337040308E+02  0.12142949380E+02 -0.10976562681E+03  0.16766141785E+03  0.12509000000E+03 0.  0.
         25    1    1    2    0    0 -0.18005126132E+02 -0.43371399335E+02  0.18496741774E+03  0.22817913264E+03  0.12509000000E+03 0.  0.
         25    1    3    3    0    0  0.16680858237E+01  0.31228449955E+02 -0.24230075214E+02  0.13119681110E+03  0.12509000000E+03 0.  0.
<mgrwt>
<rscale>  2 0.52456674E+03</rscale>
<asrwt>0</asrwt>
<pdfrwt beam="1">  1       21 0.42500668E-01 0.52456674E+03</pdfrwt>
<pdfrwt beam="2">  1       21 0.35004827E-01 0.52456674E+03</pdfrwt>
<totfact> 0.37799651E+04</totfact>
</mgrwt>
</event>
<event>
 6    0  0.1539497E-004  0.4311266E+03  0.7546771E-02  0.1033505E+00
         21   -1    0    0  502  501  0.00000000000E+00  0.00000000000E+00  0.10288477840E+03  0.10288477840E+03  0.00000000000E+00 0.  1.
         21   -1    0    0  501  502 -0.00000000000E+00 -0.00000000000E+00 -0.45164636547E+03  0.45164636547E+03  0.00000000000E+00 0.  1.
      99925    2    1    2    0    0 -0.29728072450E+02 -0.42682774440E+02 -0.13155975519E+03  0.29854340707E+03  0.26289659411E+03 0.  0.
         25    1    3    3    0    0  0.22819017055E+02 -0.53719945351E+01 -0.63758520694E+02  0.14234543521E+03  0.12509000000E+03 0.  0.
         25    1    3    3    0    0 -0.52547089505E+02 -0.37310779905E+02 -0.67801234497E+02  0.15619797186E+03  0.12509000000E+03 0.  0.
         25    1    1    2    0    0  0.29728072450E+02  0.42682774440E+02 -0.21720183188E+03  0.25598773681E+03  0.12509000000E+03 0.  0.
<mgrwt>
<rscale>  2 0.43112660E+03</rscale>
<asrwt>0</asrwt>
<pdfrwt beam="1">  1       21 0.15130114E-01 0.43112660E+03</pdfrwt>
<pdfrwt beam="2">  1       21 0.66418585E-01 0.43112660E+03</pdfrwt>
<totfact> 0.74708944E+04</totfact>
</mgrwt>
</event>
<event>
 6    0  0.1539497E-004  0.4278400E+03  0.7546771E-02  0.1034544E+00
         21   -1    0    0  502  501  0.00000000000E+00  0.00000000000E+00  0.79650854703E+03  0.79650854703E+03  0.00000000000E+00 0.  1.
         21   -1    0    0  501  502 -0.00000000000E+00 -0.00000000000E+00 -0.57452949284E+02  0.57452949284E+02  0.00000000000E+00 0.  1.
      99925    2    1    2    0    0  0.20242325185E+01  0.41858899734E+02  0.62582469724E+03  0.68010808124E+03  0.26293380438E+03 0.  0.
         25    1    1    2    0    0 -0.20242325185E+01 -0.41858899734E+02  0.11323090051E+03  0.17385341508E+03  0.12509000000E+03 0.  0.
         25    1    3    3    0    0 -0.60344910553E+00  0.61452551015E+02  0.31346771475E+03  0.34305436372E+03  0.12509000000E+03 0.  0.
         25    1    3    3    0    0  0.26276816240E+01 -0.19593651281E+02  0.31235698249E+03  0.33705371752E+03  0.12509000000E+03 0.  0.
<mgrwt>
<rscale>  2 0.42783999E+03</rscale>
<asrwt>0</asrwt>
<pdfrwt beam="1">  1       21 0.11713360E+00 0.42783999E+03</pdfrwt>
<pdfrwt beam="2">  1       21 0.84489636E-02 0.42783999E+03</pdfrwt>
<totfact> 0.56336739E+04</totfact>
</mgrwt>
</event>
<event>
 6    0  0.1539497E-004  0.4087633E+03  0.7546771E-02  0.1040787E+00
         21   -1    0    0  502  501  0.00000000000E+00  0.00000000000E+00  0.54185152063E+02  0.54185152063E+02  0.00000000000E+00 0.  1.
         21   -1    0    0  501  502 -0.00000000000E+00 -0.00000000000E+00 -0.77090963484E+03  0.77090963484E+03  0.00000000000E+00 0.  1.
      99925    2    1    2    0    0  0.93336554450E-01  0.20577816626E+02 -0.58769542826E+03  0.64420957397E+03  0.26305247299E+03 0.  0.
         25    1    1    2    0    0 -0.93336554450E-01 -0.20577816626E+02 -0.12902905452E+03  0.18088521293E+03  0.12509000000E+03 0.  0.
         25    1    3    3    0    0 -0.39669893927E+02  0.72813786306E+01 -0.27357141432E+03  0.30350542959E+03  0.12509000000E+03 0.  0.
         25    1    3    3    0    0  0.39763230481E+02  0.13296437996E+02 -0.31412401394E+03  0.34070414438E+03  0.12509000000E+03 0.  0.
<mgrwt>
<rscale>  2 0.40876328E+03</rscale>
<asrwt>0</asrwt>
<pdfrwt beam="1">  1       21 0.79684044E-02 0.40876328E+03</pdfrwt>
<pdfrwt beam="2">  1       21 0.11336907E+00 0.40876328E+03</pdfrwt>
<totfact> 0.68121289E+04</totfact>
</mgrwt>
</event>
<event>
 6    0  0.1539497E-004  0.4000936E+03  0.7546771E-02  0.1043747E+00
         21   -1    0    0  502  501  0.00000000000E+00  0.00000000000E+00  0.38577118254E+04  0.38577118254E+04  0.00000000000E+00 0.  1.
         21   -1    0    0  501  502 -0.00000000000E+00 -0.00000000000E+00 -0.10373691817E+02  0.10373691817E+02  0.00000000000E+00 0.  1.
      99925    2    1    2    0    0 -0.81177134410E+01 -0.18627494625E+02  0.29615321023E+04  0.29732599957E+04  0.26303940419E+03 0.  0.
         25    1    1    2    0    0  0.81177134410E+01  0.18627494625E+02  0.88580603129E+03  0.89482552154E+03  0.12509000000E+03 0.  0.
         25    1    3    3    0    0  0.62715013021E+01 -0.26445405122E+02  0.10922438723E+04  0.10997194532E+04  0.12509000000E+03 0.  0.
         25    1    3    3    0    0 -0.14389214743E+02  0.78179104968E+01  0.18692882301E+04  0.18735405425E+04  0.12509000000E+03 0.  0.
<mgrwt>
<rscale>  2 0.40009356E+03</rscale>
<asrwt>0</asrwt>
<pdfrwt beam="1">  1       21 0.56730956E+00 0.40009356E+03</pdfrwt>
<pdfrwt beam="2">  1       21 0.15255456E-02 0.40009356E+03</pdfrwt>
<totfact> 0.94422213E+02</totfact>
</mgrwt>
</event>
<event>
 6    0  0.1539497E-004  0.4040687E+03  0.7546771E-02  0.1042380E+00
         21   -1    0    0  502  501  0.00000000000E+00  0.00000000000E+00  0.87133888275E+03  0.87133888275E+03  0.00000000000E+00 0.  1.
         21   -1    0    0  501  502 -0.00000000000E+00 -0.00000000000E+00 -0.46844999949E+02  0.46844999949E+02  0.00000000000E+00 0.  1.
      99925    2    1    2    0    0 -0.94634884866E+01 -0.12317894346E+02  0.43242381736E+03  0.50634928914E+03  0.26297900422E+03 0.  0.
         25    1    3    3    0    0 -0.24533465948E+01 -0.41335063369E+02  0.18024576147E+03  0.22327258901E+03  0.12509000000E+03 0.  0.
         25    1    1    2    0    0  0.94634884866E+01  0.12317894346E+02  0.39207006544E+03  0.41183459356E+03  0.12509000000E+03 0.  0.
         25    1    3    3    0    0 -0.70101418918E+01  0.29017169023E+02  0.25217805589E+03  0.28307670013E+03  0.12509000000E+03 0.  0.
<mgrwt>
<rscale>  2 0.40406866E+03</rscale>
<asrwt>0</asrwt>
<pdfrwt beam="1">  1       21 0.12813806E+00 0.40406866E+03</pdfrwt>
<pdfrwt beam="2">  1       21 0.68889711E-02 0.40406866E+03</pdfrwt>
<totfact> 0.64609007E+04</totfact>
</mgrwt>
</event>
<event>
 6    0  0.1539497E-004  0.4705672E+03  0.7546771E-02  0.1021760E+00
         21   -1    0    0  502  501  0.00000000000E+00  0.00000000000E+00  0.18810526585E+03  0.18810526585E+03  0.00000000000E+00 0. -1.
         21   -1    0    0  501  502 -0.00000000000E+00 -0.00000000000E+00 -0.29429468660E+03  0.29429468660E+03  0.00000000000E+00 0. -1.
      99925    2    1    2    0    0  0.47795756419E+02 -0.51282964971E+02  0.42833089143E+02  0.27559184481E+03  0.26306237772E+03 0.  0.
         25    1    3    3    0    0  0.55438719097E+02 -0.36845996871E+02 -0.19912027893E+01  0.14171292125E+03  0.12509000000E+03 0.  0.
         25    1    1    2    0    0 -0.47795756419E+02  0.51282964971E+02 -0.14902250989E+03  0.20680810763E+03  0.12509000000E+03 0.  0.
         25    1    3    3    0    0 -0.76429626775E+01 -0.14436968100E+02  0.44824291933E+02  0.13387892356E+03  0.12509000000E+03 0.  0.
<mgrwt>
<rscale>  2 0.47056723E+03</rscale>
<asrwt>0</asrwt>
<pdfrwt beam="1">  1       21 0.27662539E-01 0.47056723E+03</pdfrwt>
<pdfrwt beam="2">  1       21 0.43278630E-01 0.47056723E+03</pdfrwt>
<totfact> 0.58904513E+04</totfact>
</mgrwt>
</event>
<event>
 6    0  0.1539497E-004  0.4083368E+03  0.7546771E-02  0.1040931E+00
         21   -1    0    0  502  501  0.00000000000E+00  0.00000000000E+00  0.10890430507E+03  0.10890430507E+03  0.00000000000E+00 0. -1.
         21   -1    0    0  501  502 -0.00000000000E+00 -0.00000000000E+00 -0.38276472116E+03  0.38276472116E+03  0.00000000000E+00 0. -1.
      99925    2    1    2    0    0 -0.58232603644E+02  0.95888866465E+01 -0.16921336174E+03  0.31822884358E+03  0.26297043983E+03 0.  0.
         25    1    1    2    0    0  0.58232603644E+02 -0.95888866465E+01 -0.10464705435E+03  0.17344018265E+03  0.12509000000E+03 0.  0.
         25    1    3    3    0    0 -0.23168226233E+01 -0.12852688027E+02 -0.50417352824E+02  0.13549899196E+03  0.12509000000E+03 0.  0.
         25    1    3    3    0    0 -0.55915781021E+02  0.22441574673E+02 -0.11879600891E+03  0.18272985162E+03  0.12509000000E+03 0.  0.
<mgrwt>
<rscale>  2 0.40833675E+03</rscale>
<asrwt>0</asrwt>
<pdfrwt beam="1">  1       21 0.16015339E-01 0.40833675E+03</pdfrwt>
<pdfrwt beam="2">  1       21 0.56288931E-01 0.40833675E+03</pdfrwt>
<totfact> 0.97123792E+04</totfact>
</mgrwt>
</event>
<event>
 6    0  0.1539497E-004  0.4811653E+03  0.7546771E-02  0.1018815E+00
         21   -1    0    0  502  501  0.00000000000E+00  0.00000000000E+00  0.96509270104E+03  0.96509270104E+03  0.00000000000E+00 0.  1.
         21   -1    0    0  501  502 -0.00000000000E+00 -0.00000000000E+00 -0.59973529918E+02  0.59973529918E+02  0.00000000000E+00 0.  1.
      99925    2    1    2    0    0 -0.58294064749E+02 -0.84914606787E+02  0.36672667759E+03  0.46281835535E+03  0.26287579874E+03 0.  0.
         25    1    1    2    0    0  0.58294064749E+02  0.84914606787E+02  0.53839249353E+03  0.56224787561E+03  0.12509000000E+03 0.  0.
         25    1    3    3    0    0  0.11286653960E+02 -0.42781371019E+02  0.18550184033E+03  0.22807032935E+03  0.12509000000E+03 0.  0.
         25    1    3    3    0    0 -0.69580718710E+02 -0.42133235768E+02  0.18122483727E+03  0.23474802601E+03  0.12509000000E+03 0.  0.
<mgrwt>
<rscale>  2 0.48116532E+03</rscale>
<asrwt>0</asrwt>
<pdfrwt beam="1">  1       21 0.14192539E+00 0.48116532E+03</pdfrwt>
<pdfrwt beam="2">  1       21 0.88196373E-02 0.48116532E+03</pdfrwt>
<totfact> 0.31304491E+04</totfact>
</mgrwt>
</event>
<event>
 6    0  0.1539497E-004  0.4449045E+03  0.7546771E-02  0.1029253E+00
         21   -1    0    0  502  501  0.00000000000E+00  0.00000000000E+00  0.53909182906E+02  0.53909182906E+02  0.00000000000E+00 0. -1.
         21   -1    0    0  501  502 -0.00000000000E+00 -0.00000000000E+00 -0.91793291745E+03  0.91793291745E+03  0.00000000000E+00 0. -1.
      99925    2    1    2    0    0 -0.28215103363E+02 -0.58419995736E+02 -0.37163441384E+03  0.45968612879E+03  0.26265987798E+03 0.  0.
         25    1    1    2    0    0  0.28215103363E+02  0.58419995736E+02 -0.49238932071E+03  0.51215597156E+03  0.12509000000E+03 0.  0.
         25    1    3    3    0    0  0.19703255213E+01  0.81013113718E+01 -0.16115818746E+03  0.20417880134E+03  0.12509000000E+03 0.  0.
         25    1    3    3    0    0 -0.30185428884E+02 -0.66521307108E+02 -0.21047622637E+03  0.25550732746E+03  0.12509000000E+03 0.  0.
<mgrwt>
<rscale>  2 0.44490455E+03</rscale>
<asrwt>0</asrwt>
<pdfrwt beam="1">  1       21 0.79278210E-02 0.44490455E+03</pdfrwt>
<pdfrwt beam="2">  1       21 0.13499013E+00 0.44490455E+03</pdfrwt>
<totfact> 0.43610227E+04</totfact>
</mgrwt>
</event>
<event>
 5    0  0.1539497E-004  0.4903055E+03  0.7546771E-02  0.1016341E+00
         21   -1    0    0  502  501  0.00000000000E+00  0.00000000000E+00  0.74020933620E+02  0.74020933620E+02  0.00000000000E+00 0.  1.
         21   -1    0    0  501  502 -0.00000000000E+00 -0.00000000000E+00 -0.81193072571E+03  0.81193072571E+03  0.00000000000E+00 0.  1.
         25    1    1    2    0    0  0.25442145243E+02  0.12798199288E+02 -0.18774016656E+03  0.22738727955E+03  0.12509000000E+03 0.  0.
         25    1    1    2    0    0  0.34100235190E+02  0.11478315197E+03 -0.28032868487E+03  0.32949913152E+03  0.12509000000E+03 0.  0.
         25    1    1    2    0    0 -0.59542380433E+02 -0.12758135125E+03 -0.26984094066E+03  0.32906524826E+03  0.12509000000E+03 0.  0.
<mgrwt>
<rscale>  2 0.49030550E+03</rscale>
<asrwt>0</asrwt>
<pdfrwt beam="1">  1       21 0.10885430E-01 0.49030550E+03</pdfrwt>
<pdfrwt beam="2">  1       21 0.11940159E+00 0.49030550E+03</pdfrwt>
<totfact> 0.33559800E+04</totfact>
</mgrwt>
</event>
<event>
 6    0  0.1539497E-004  0.4101193E+03  0.7546771E-02  0.1040331E+00
         21   -1    0    0  502  501  0.00000000000E+00  0.00000000000E+00  0.77792594648E+02  0.77792594648E+02  0.00000000000E+00 0. -1.
         21   -1    0    0  501  502 -0.00000000000E+00 -0.00000000000E+00 -0.54053304425E+03  0.54053304425E+03  0.00000000000E+00 0. -1.
      99925    2    1    2    0    0 -0.33036161034E+02 -0.35442392571E+02 -0.24519027089E+03  0.36274172022E+03  0.26289871724E+03 0.  0.
         25    1    3    3    0    0 -0.29277193139E+02 -0.56618401844E+02 -0.13011624081E+03  0.19141719277E+03  0.12509000000E+03 0.  0.
         25    1    1    2    0    0  0.33036161034E+02  0.35442392571E+02 -0.21755017871E+03  0.25558391867E+03  0.12509000000E+03 0.  0.
         25    1    3    3    0    0 -0.37589678947E+01  0.21176009273E+02 -0.11507403008E+03  0.17132452745E+03  0.12509000000E+03 0.  0.
<mgrwt>
<rscale>  2 0.41011934E+03</rscale>
<asrwt>0</asrwt>
<pdfrwt beam="1">  1       21 0.11440087E-01 0.41011934E+03</pdfrwt>
<pdfrwt beam="2">  1       21 0.79490154E-01 0.41011934E+03</pdfrwt>
<totfact> 0.83410050E+04</totfact>
</mgrwt>
</event>
<event>
 6    0  0.1760081E-004  0.4155495E+03  0.7546771E-02  0.1038525E+00
         21   -1    0    0  502  501  0.00000000000E+00  0.00000000000E+00  0.52498427323E+03  0.52498427323E+03  0.00000000000E+00 0. -1.
         21   -1    0    0  501  502 -0.00000000000E+00 -0.00000000000E+00 -0.82231677537E+02  0.82231677537E+02  0.00000000000E+00 0. -1.
      99925    2    1    2    0    0 -0.59713166458E+02 -0.87058565926E+00  0.23649268533E+03  0.35870623488E+03  0.26301131641E+03 0.  0.
         25    1    3    3    0    0 -0.52387239230E+02  0.28924692704E+02  0.99480535785E+02  0.17066032281E+03  0.12509000000E+03 0.  0.
         25    1    3    3    0    0 -0.73259272281E+01 -0.29795278363E+02  0.13701214954E+03  0.18804591206E+03  0.12509000000E+03 0.  0.
         25    1    1    2    0    0  0.59713166458E+02  0.87058565926E+00  0.20625991037E+03  0.24850971590E+03  0.12509000000E+03 0.  0.
<mgrwt>
<rscale>  2 0.41554946E+03</rscale>
<asrwt>0</asrwt>
<pdfrwt beam="1">  1       21 0.77203568E-01 0.41554946E+03</pdfrwt>
<pdfrwt beam="2">  1       21 0.12092894E-01 0.41554946E+03</pdfrwt>
<totfact> 0.80543903E+04</totfact>
</mgrwt>
</event>
<event>
 6    0  0.1539497E-004  0.4056507E+03  0.7546771E-02  0.1041840E+00
         21   -1    0    0  502  501  0.00000000000E+00  0.00000000000E+00  0.71563513346E+02  0.71563513346E+02  0.00000000000E+00 0.  1.
         21   -1    0    0  501  502 -0.00000000000E+00 -0.00000000000E+00 -0.57484759404E+03  0.57484759404E+03  0.00000000000E+00 0.  1.
      99925    2    1    2    0    0  0.39318911617E+02 -0.30985828990E+02 -0.29446597679E+03  0.39789831692E+03  0.26288164772E+03 0.  0.
         25    1    3    3    0    0  0.59314604579E+02 -0.18258835250E+02 -0.14014525371E+03  0.19783783161E+03  0.12509000000E+03 0.  0.
         25    1    1    2    0    0 -0.39318911617E+02  0.30985828990E+02 -0.20881810390E+03  0.24851279047E+03  0.12509000000E+03 0.  0.
         25    1    3    3    0    0 -0.19995692962E+02 -0.12726993740E+02 -0.15432072309E+03  0.20006048530E+03  0.12509000000E+03 0.  0.
<mgrwt>
<rscale>  2 0.40565065E+03</rscale>
<asrwt>0</asrwt>
<pdfrwt beam="1">  1       21 0.10524045E-01 0.40565065E+03</pdfrwt>
<pdfrwt beam="2">  1       21 0.84536416E-01 0.40565065E+03</pdfrwt>
<totfact> 0.84184090E+04</totfact>
</mgrwt>
</event>
<event>
 6    0  0.1539497E-004  0.4352234E+03  0.7546771E-02  0.1032223E+00
         21   -1    0    0  502  501  0.00000000000E+00  0.00000000000E+00  0.79110910770E+02  0.79110910770E+02  0.00000000000E+00 0.  1.
         21   -1    0    0  501  502 -0.00000000000E+00 -0.00000000000E+00 -0.59858813290E+03  0.59858813290E+03  0.00000000000E+00 0.  1.
      99925    2    1    2    0    0  0.22525095299E+02  0.62240343729E+01 -0.47390775238E+03  0.54253172811E+03  0.26307033227E+03 0.  0.
         25    1    3    3    0    0  0.40209608959E+02  0.24031716687E+02 -0.20184698953E+03  0.24204142485E+03  0.12509000000E+03 0.  0.
         25    1    3    3    0    0 -0.17684513661E+02 -0.17807682315E+02 -0.27206076285E+03  0.30049030327E+03  0.12509000000E+03 0.  0.
         25    1    1    2    0    0 -0.22525095299E+02 -0.62240343729E+01 -0.45569469749E+02  0.13516731556E+03  0.12509000000E+03 0.  0.
<mgrwt>
<rscale>  2 0.43522340E+03</rscale>
<asrwt>0</asrwt>
<pdfrwt beam="1">  1       21 0.11633958E-01 0.43522340E+03</pdfrwt>
<pdfrwt beam="2">  1       21 0.88027663E-01 0.43522340E+03</pdfrwt>
<totfact> 0.63449569E+04</totfact>
</mgrwt>
</event>
<event>
 6    0  0.1539497E-004  0.4193138E+03  0.7546771E-02  0.1037290E+00
         21   -1    0    0  502  501  0.00000000000E+00  0.00000000000E+00  0.98002805150E+02  0.98002805150E+02  0.00000000000E+00 0.  1.
         21   -1    0    0  501  502 -0.00000000000E+00 -0.00000000000E+00 -0.44851786241E+03  0.44851786241E+03  0.00000000000E+00 0.  1.
      99925    2    1    2    0    0  0.34596728985E+02  0.48165607531E+02 -0.28852637873E+03  0.39484020154E+03  0.26293431523E+03 0.  0.
         25    1    1    2    0    0 -0.34596728985E+02 -0.48165607531E+02 -0.61988678525E+02  0.15168046602E+03  0.12509000000E+03 0.  0.
         25    1    3    3    0    0 -0.18358723612E+02  0.41156490670E+02 -0.15535787168E+03  0.20448588179E+03  0.12509000000E+03 0.  0.
         25    1    3    3    0    0  0.52955452597E+02  0.70091168611E+01 -0.13316850705E+03  0.19035431975E+03  0.12509000000E+03 0.  0.
<mgrwt>
<rscale>  2 0.41931377E+03</rscale>
<asrwt>0</asrwt>
<pdfrwt beam="1">  1       21 0.14412177E-01 0.41931377E+03</pdfrwt>
<pdfrwt beam="2">  1       21 0.65958509E-01 0.41931377E+03</pdfrwt>
<totfact> 0.83222488E+04</totfact>
</mgrwt>
</event>
<event>
 6    0  0.1539497E-004  0.4554613E+03  0.7546771E-02  0.1026106E+00
         21   -1    0    0  502  501  0.00000000000E+00  0.00000000000E+00  0.50466772968E+03  0.50466772968E+03  0.00000000000E+00 0. -1.
         21   -1    0    0  501  502 -0.00000000000E+00 -0.00000000000E+00 -0.10276315910E+03  0.10276315910E+03  0.00000000000E+00 0. -1.
      99925    2    1    2    0    0 -0.47229234995E+02 -0.32906300980E+02  0.38370121625E+03  0.46853418079E+03  0.26264849121E+03 0.  0.
         25    1    1    2    0    0  0.47229234995E+02  0.32906300980E+02  0.18203354325E+02  0.13889670799E+03  0.12509000000E+03 0.  0.
         25    1    3    3    0    0  0.54271270308E+01 -0.84712463263E+01  0.13614964310E+03  0.18516330398E+03  0.12509000000E+03 0.  0.
         25    1    3    3    0    0 -0.52656362025E+02 -0.24435054653E+02  0.24755157315E+03  0.28337087681E+03  0.12509000000E+03 0.  0.
<mgrwt>
<rscale>  2 0.45546131E+03</rscale>
<asrwt>0</asrwt>
<pdfrwt beam="1">  1       21 0.74215841E-01 0.45546131E+03</pdfrwt>
<pdfrwt beam="2">  1       21 0.15112230E-01 0.45546131E+03</pdfrwt>
<totfact> 0.58011506E+04</totfact>
</mgrwt>
</event>
<event>
 6    0  0.1539497E-004  0.4245161E+03  0.7546771E-02  0.1035606E+00
         21   -1    0    0  502  501  0.00000000000E+00  0.00000000000E+00  0.87638382677E+02  0.87638382677E+02  0.00000000000E+00 0.  1.
         21   -1    0    0  501  502 -0.00000000000E+00 -0.00000000000E+00 -0.51408381962E+03  0.51408381962E+03  0.00000000000E+00 0.  1.
      99925    2    1    2    0    0  0.10305870979E+02 -0.77715873119E+02 -0.24563214918E+03  0.36829786543E+03  0.26298706633E+03 0.  0.
         25    1    3    3    0    0 -0.23878121329E+02 -0.24121224019E+02 -0.84936726859E+02  0.15496371768E+03  0.12509000000E+03 0.  0.
         25    1    3    3    0    0  0.34183992308E+02 -0.53594649100E+02 -0.16069542232E+03  0.21333414775E+03  0.12509000000E+03 0.  0.
         25    1    1    2    0    0 -0.10305870979E+02  0.77715873119E+02 -0.18081328776E+03  0.23342433687E+03  0.12509000000E+03 0.  0.
<mgrwt>
<rscale>  2 0.42451608E+03</rscale>
<asrwt>0</asrwt>
<pdfrwt beam="1">  1       21 0.12887998E-01 0.42451608E+03</pdfrwt>
<pdfrwt beam="2">  1       21 0.75600559E-01 0.42451608E+03</pdfrwt>
<totfact> 0.75084855E+04</totfact>
</mgrwt>
</event>
<event>
 6    0  0.1539497E-004  0.4166527E+03  0.7546771E-02  0.1038161E+00
         21   -1    0    0  502  501  0.00000000000E+00  0.00000000000E+00  0.20354390957E+03  0.20354390957E+03  0.00000000000E+00 0. -1.
         21   -1    0    0  501  502 -0.00000000000E+00 -0.00000000000E+00 -0.21322114942E+03  0.21322114942E+03  0.00000000000E+00 0. -1.
      99925    2    1    2    0    0 -0.55260241529E+02 -0.28609838444E+02 -0.41564966152E+02  0.27345925890E+03  0.26302110698E+03 0.  0.
         25    1    3    3    0    0 -0.34241212823E+02  0.76468981876E+01  0.13270218214E+02  0.13059304154E+03  0.12509000000E+03 0.  0.
         25    1    3    3    0    0 -0.21019028707E+02 -0.36256736631E+02 -0.54835184366E+02  0.14286621736E+03  0.12509000000E+03 0.  0.
         25    1    1    2    0    0  0.55260241529E+02  0.28609838444E+02  0.31887726310E+02  0.14330580009E+03  0.12509000000E+03 0.  0.
<mgrwt>
<rscale>  2 0.41665269E+03</rscale>
<asrwt>0</asrwt>
<pdfrwt beam="1">  1       21 0.29932928E-01 0.41665269E+03</pdfrwt>
<pdfrwt beam="2">  1       21 0.31356051E-01 0.41665269E+03</pdfrwt>
<totfact> 0.98230018E+04</totfact>
</mgrwt>
</event>
<event>
 6    0  0.1539497E-004  0.3986072E+03  0.7546771E-02  0.1044263E+00
         21   -1    0    0  502  501  0.00000000000E+00  0.00000000000E+00  0.11731018111E+03  0.11731018111E+03  0.00000000000E+00 0. -1.
         21   -1    0    0  501  502 -0.00000000000E+00 -0.00000000000E+00 -0.33860599772E+03  0.33860599772E+03  0.00000000000E+00 0. -1.
      99925    2    1    2    0    0 -0.42154772385E+02  0.48053820025E+01 -0.15164326130E+03  0.30658733670E+03  0.26305892837E+03 0.  0.
         25    1    3    3    0    0 -0.33701623789E+01  0.27359330563E+02 -0.10539252060E+03  0.16587640719E+03  0.12509000000E+03 0.  0.
         25    1    1    2    0    0  0.42154772385E+02 -0.48053820025E+01 -0.69652555311E+02  0.14932884213E+03  0.12509000000E+03 0.  0.
         25    1    3    3    0    0 -0.38784610006E+02 -0.22553948561E+02 -0.46250740705E+02  0.14071092951E+03  0.12509000000E+03 0.  0.
<mgrwt>
<rscale>  2 0.39860723E+03</rscale>
<asrwt>0</asrwt>
<pdfrwt beam="1">  1       21 0.17251497E-01 0.39860723E+03</pdfrwt>
<pdfrwt beam="2">  1       21 0.49794999E-01 0.39860723E+03</pdfrwt>
<totfact> 0.11012516E+05</totfact>
</mgrwt>
</event>
<event>
 6    0  0.1539497E-004  0.4451795E+03  0.7546771E-02  0.1029169E+00
         21   -1    0    0  502  501  0.00000000000E+00  0.00000000000E+00  0.93461003271E+02  0.93461003271E+02  0.00000000000E+00 0. -1.
         21   -1    0    0  501  502 -0.00000000000E+00 -0.00000000000E+00 -0.53012703666E+03  0.53012703666E+03  0.00000000000E+00 0. -1.
      99925    2    1    2    0    0 -0.73898666113E+02 -0.69525572712E+02 -0.24970661771E+03  0.37681658833E+03  0.26332969487E+03 0.  0.
         25    1    3    3    0    0 -0.51652609953E+02  0.32126431802E+01 -0.10962848037E+03  0.17419593853E+03  0.12509000000E+03 0.  0.
         25    1    3    3    0    0 -0.22246056160E+02 -0.72738215893E+02 -0.14007813734E+03  0.20262064980E+03  0.12509000000E+03 0.  0.
         25    1    1    2    0    0  0.73898666113E+02  0.69525572712E+02 -0.18695941568E+03  0.24677145160E+03  0.12509000000E+03 0.  0.
<mgrwt>
<rscale>  2 0.44517954E+03</rscale>
<asrwt>0</asrwt>
<pdfrwt beam="1">  1       21 0.13744265E-01 0.44517954E+03</pdfrwt>
<pdfrwt beam="2">  1       21 0.77959861E-01 0.44517954E+03</pdfrwt>
<totfact> 0.61911778E+04</totfact>
</mgrwt>
</event>
<event>
 6    0  0.1539497E-004  0.4326940E+03  0.7546771E-02  0.1033012E+00
         21   -1    0    0  502  501  0.00000000000E+00  0.00000000000E+00  0.97261730584E+03  0.97261730584E+03  0.00000000000E+00 0.  1.
         21   -1    0    0  501  502 -0.00000000000E+00 -0.00000000000E+00 -0.48123792900E+02  0.48123792900E+02  0.00000000000E+00 0.  1.
      99925    2    1    2    0    0  0.42141524052E+02  0.51218377249E+02  0.74114959768E+03  0.78909108346E+03  0.26260765722E+03 0.  0.
         25    1    3    3    0    0  0.35306844289E+02  0.44812755746E+02  0.48124139037E+03  0.50049529492E+03  0.12509000000E+03 0.  0.
         25    1    1    2    0    0 -0.42141524052E+02 -0.51218377249E+02  0.18334391526E+03  0.23165001528E+03  0.12509000000E+03 0.  0.
         25    1    3    3    0    0  0.68346797624E+01  0.64056215024E+01  0.25990820731E+03  0.28859578854E+03  0.12509000000E+03 0.  0.
<mgrwt>
<rscale>  2 0.43269404E+03</rscale>
<asrwt>0</asrwt>
<pdfrwt beam="1">  1       21 0.14303194E+00 0.43269404E+03</pdfrwt>
<pdfrwt beam="2">  1       21 0.70770290E-02 0.43269404E+03</pdfrwt>
<totfact> 0.45849132E+04</totfact>
</mgrwt>
</event>
<event>
 6    0  0.1539497E-004  0.3948332E+03  0.7546771E-02  0.1045584E+00
         21   -1    0    0  502  501  0.00000000000E+00  0.00000000000E+00  0.19127111782E+03  0.19127111782E+03  0.00000000000E+00 0.  1.
         21   -1    0    0  501  502 -0.00000000000E+00 -0.00000000000E+00 -0.20375956000E+03  0.20375956000E+03  0.00000000000E+00 0.  1.
      99925    2    1    2    0    0  0.22117183244E+02 -0.25172155076E+02 -0.12573289273E+02  0.26553039796E+03  0.26310738768E+03 0.  0.
         25    1    1    2    0    0 -0.22117183244E+02  0.25172155076E+02  0.84847093075E-01  0.12950027986E+03  0.12509000000E+03 0.  0.
         25    1    3    3    0    0  0.15238490467E+02  0.10284107303E+02  0.27328660988E+02  0.12935353983E+03  0.12509000000E+03 0.  0.
         25    1    3    3    0    0  0.68786927775E+01 -0.35456262379E+02 -0.39901950261E+02  0.13617685813E+03  0.12509000000E+03 0.  0.
<mgrwt>
<rscale>  2 0.39483322E+03</rscale>
<asrwt>0</asrwt>
<pdfrwt beam="1">  1       21 0.28128106E-01 0.39483322E+03</pdfrwt>
<pdfrwt beam="2">  1       21 0.29964641E-01 0.39483322E+03</pdfrwt>
<totfact> 0.12208151E+05</totfact>
</mgrwt>
</event>
<event>
 6    0  0.1539497E-004  0.5082316E+03  0.7546771E-02  0.1011652E+00
         21   -1    0    0  502  501  0.00000000000E+00  0.00000000000E+00  0.15727103654E+03  0.15727103654E+03  0.00000000000E+00 0. -1.
         21   -1    0    0  501  502 -0.00000000000E+00 -0.00000000000E+00 -0.41059584991E+03  0.41059584991E+03  0.00000000000E+00 0. -1.
      99925    2    1    2    0    0 -0.66332702179E+02  0.14185137571E+03 -0.13005389023E+03  0.33256905654E+03  0.26299491028E+03 0.  0.
         25    1    3    3    0    0  0.63495508795E+01  0.80801886518E+02 -0.62290949980E+02  0.16154544937E+03  0.12509000000E+03 0.  0.
         25    1    3    3    0    0 -0.72682253059E+02  0.61049489195E+02 -0.67762940249E+02  0.17102360718E+03  0.12509000000E+03 0.  0.
         25    1    1    2    0    0  0.66332702179E+02 -0.14185137571E+03 -0.12327092314E+03  0.23529782991E+03  0.12509000000E+03 0.  0.
<mgrwt>
<rscale>  2 0.50823158E+03</rscale>
<asrwt>0</asrwt>
<pdfrwt beam="1">  1       21 0.23128094E-01 0.50823158E+03</pdfrwt>
<pdfrwt beam="2">  1       21 0.60381741E-01 0.50823158E+03</pdfrwt>
<totfact> 0.40660078E+04</totfact>
</mgrwt>
</event>
<event>
 6    0  0.1539497E-004  0.3999808E+03  0.7546771E-02  0.1043786E+00
         21   -1    0    0  502  501  0.00000000000E+00  0.00000000000E+00  0.18035036757E+03  0.18035036757E+03  0.00000000000E+00 0.  1.
         21   -1    0    0  501  502 -0.00000000000E+00 -0.00000000000E+00 -0.22176922986E+03  0.22176922986E+03  0.00000000000E+00 0.  1.
      99925    2    1    2    0    0  0.18016433704E+02 -0.35962535139E+02 -0.48255793759E+02  0.27054396310E+03  0.26314923242E+03 0.  0.
         25    1    3    3    0    0 -0.17994923731E+02  0.94382327906E+01 -0.37991349294E+02  0.13230173181E+03  0.12509000000E+03 0.  0.
         25    1    1    2    0    0 -0.18016433704E+02  0.35962535139E+02  0.68369314746E+01  0.13157563433E+03  0.12509000000E+03 0.  0.
         25    1    3    3    0    0  0.36011357435E+02 -0.45400767929E+02 -0.10264444466E+02  0.13824223129E+03  0.12509000000E+03 0.  0.
<mgrwt>
<rscale>  2 0.39998081E+03</rscale>
<asrwt>0</asrwt>
<pdfrwt beam="1">  1       21 0.26522113E-01 0.39998081E+03</pdfrwt>
<pdfrwt beam="2">  1       21 0.32613122E-01 0.39998081E+03</pdfrwt>
<totfact> 0.11561386E+05</totfact>
</mgrwt>
</event>
<event>
 6    0  0.1539497E-004  0.3893520E+03  0.7546771E-02  0.1047530E+00
         21   -1    0    0  502  501  0.00000000000E+00  0.00000000000E+00  0.15913756803E+03  0.15913756803E+03  0.00000000000E+00 0. -1.
         21   -1    0    0  501  502 -0.00000000000E+00 -0.00000000000E+00 -0.23815088805E+03  0.23815088805E+03  0.00000000000E+00 0. -1.
      99925    2    1    2    0    0  0.40937858441E+01  0.89763509749E+01 -0.64813842035E+02  0.27100913380E+03  0.26295965950E+03 0.  0.
         25    1    3    3    0    0  0.44960479156E+01  0.33453671610E+02 -0.61707075324E+02  0.14350830581E+03  0.12509000000E+03 0.  0.
         25    1    3    3    0    0 -0.40226207151E+00 -0.24477320635E+02 -0.31067667116E+01  0.12750082800E+03  0.12509000000E+03 0.  0.
         25    1    1    2    0    0 -0.40937858441E+01 -0.89763509749E+01 -0.14199477977E+02  0.12627932227E+03  0.12509000000E+03 0.  0.
<mgrwt>
<rscale>  2 0.38935204E+03</rscale>
<asrwt>0</asrwt>
<pdfrwt beam="1">  1       21 0.23402584E-01 0.38935204E+03</pdfrwt>
<pdfrwt beam="2">  1       21 0.35022189E-01 0.38935204E+03</pdfrwt>
<totfact> 0.12798267E+05</totfact>
</mgrwt>
</event>
<event>
 6    0  0.1539497E-004  0.4589231E+03  0.7546771E-02  0.1025094E+00
         21   -1    0    0  502  501  0.00000000000E+00  0.00000000000E+00  0.28378582955E+03  0.28378582955E+03  0.00000000000E+00 0.  1.
         21   -1    0    0  501  502 -0.00000000000E+00 -0.00000000000E+00 -0.18553639059E+03  0.18553639059E+03  0.00000000000E+00 0.  1.
      99925    2    1    2    0    0 -0.67225956357E+02 -0.68285225755E+02  0.12970510708E+03  0.30863877849E+03  0.26315827845E+03 0.  0.
         25    1    1    2    0    0  0.67225956357E+02  0.68285225755E+02 -0.31455668129E+02  0.16068344165E+03  0.12509000000E+03 0.  0.
         25    1    3    3    0    0 -0.18014915460E+01 -0.43482423631E+02  0.35487414363E+02  0.13711612310E+03  0.12509000000E+03 0.  0.
         25    1    3    3    0    0 -0.65424464811E+02 -0.24802802124E+02  0.94217692718E+02  0.17152265538E+03  0.12509000000E+03 0.  0.
<mgrwt>
<rscale>  2 0.45892308E+03</rscale>
<asrwt>0</asrwt>
<pdfrwt beam="1">  1       21 0.41733210E-01 0.45892308E+03</pdfrwt>
<pdfrwt beam="2">  1       21 0.27284763E-01 0.45892308E+03</pdfrwt>
<totfact> 0.65426454E+04</totfact>
</mgrwt>
</event>
<event>
 6    0  0.1539497E-004  0.4224083E+03  0.7546771E-02  0.1036285E+00
         21   -1    0    0  502  501  0.00000000000E+00  0.00000000000E+00  0.51734047937E+03  0.51734047937E+03  0.00000000000E+00 0. -1.
         21   -1    0    0  501  502 -0.00000000000E+00 -0.00000000000E+00 -0.86224033388E+02  0.86224033388E+02  0.00000000000E+00 0. -1.
      99925    2    1    2    0    0 -0.67868383761E+02  0.31256775599E+02  0.31616440016E+03  0.41797199008E+03  0.26297823679E+03 0.  0.
         25    1    3    3    0    0 -0.37893866123E+02  0.33163827067E+02  0.21724436722E+03  0.25569201729E+03  0.12509000000E+03 0.  0.
         25    1    3    3    0    0 -0.29974517638E+02 -0.19070514676E+01  0.98920032941E+02  0.16227997279E+03  0.12509000000E+03 0.  0.
         25    1    1    2    0    0  0.67868383761E+02 -0.31256775599E+02  0.11495204582E+03  0.18559252268E+03  0.12509000000E+03 0.  0.
<mgrwt>
<rscale>  2 0.42240825E+03</rscale>
<asrwt>0</asrwt>
<pdfrwt beam="1">  1       21 0.76079480E-01 0.42240825E+03</pdfrwt>
<pdfrwt beam="2">  1       21 0.12680005E-01 0.42240825E+03</pdfrwt>
<totfact> 0.76279592E+04</totfact>
</mgrwt>
</event>
<event>
 6    0  0.1539497E-004  0.4007818E+03  0.7546771E-02  0.1043509E+00
         21   -1    0    0  502  501  0.00000000000E+00  0.00000000000E+00  0.12495805495E+04  0.12495805495E+04  0.00000000000E+00 0.  1.
         21   -1    0    0  501  502 -0.00000000000E+00 -0.00000000000E+00 -0.32135995680E+02  0.32135995680E+02  0.00000000000E+00 0.  1.
      99925    2    1    2    0    0 -0.19417306101E+02 -0.32626113388E+02  0.89973439175E+03  0.93816341940E+03  0.26303446684E+03 0.  0.
         25    1    3    3    0    0  0.25889955516E+02 -0.35633308357E+02  0.45956002685E+03  0.47831260577E+03  0.12509000000E+03 0.  0.
         25    1    3    3    0    0 -0.45307261616E+02  0.30071949690E+01  0.44017436491E+03  0.45985081363E+03  0.12509000000E+03 0.  0.
         25    1    1    2    0    0  0.19417306101E+02  0.32626113388E+02  0.31771016202E+03  0.34355312573E+03  0.12509000000E+03 0.  0.
<mgrwt>
<rscale>  2 0.40078181E+03</rscale>
<asrwt>0</asrwt>
<pdfrwt beam="1">  1       21 0.18376181E+00 0.40078181E+03</pdfrwt>
<pdfrwt beam="2">  1       21 0.47258825E-02 0.40078181E+03</pdfrwt>
<totfact> 0.46320156E+04</totfact>
</mgrwt>
</event>
<event>
 6    0  0.1539497E-004  0.4285084E+03  0.7546771E-02  0.1034332E+00
         21   -1    0    0  502  501  0.00000000000E+00  0.00000000000E+00  0.37591952526E+03  0.37591952526E+03  0.00000000000E+00 0. -1.
         21   -1    0    0  501  502 -0.00000000000E+00 -0.00000000000E+00 -0.12211352984E+03  0.12211352984E+03  0.00000000000E+00 0. -1.
      99925    2    1    2    0    0  0.58793543690E+02 -0.60628029697E+02  0.18282298903E+03  0.33124416440E+03  0.26299432003E+03 0.  0.
         25    1    3    3    0    0  0.41006744707E+02 -0.21811227373E+02  0.13727503962E+03  0.19143987921E+03  0.12509000000E+03 0.  0.
         25    1    3    3    0    0  0.17786798983E+02 -0.38816802325E+02  0.45547949409E+02  0.13980428519E+03  0.12509000000E+03 0.  0.
         25    1    1    2    0    0 -0.58793543690E+02  0.60628029697E+02  0.70983006398E+02  0.16678889070E+03  0.12509000000E+03 0.  0.
<mgrwt>
<rscale>  2 0.42850839E+03</rscale>
<asrwt>0</asrwt>
<pdfrwt beam="1">  1       21 0.55282283E-01 0.42850839E+03</pdfrwt>
<pdfrwt beam="2">  1       21 0.17957872E-01 0.42850839E+03</pdfrwt>
<totfact> 0.81173489E+04</totfact>
</mgrwt>
</event>
<event>
 6    0  0.1539497E-004  0.4222738E+03  0.7546771E-02  0.1036329E+00
         21   -1    0    0  502  501  0.00000000000E+00  0.00000000000E+00  0.13565633771E+04  0.13565633771E+04  0.00000000000E+00 0.  1.
         21   -1    0    0  501  502 -0.00000000000E+00 -0.00000000000E+00 -0.32861557920E+02  0.32861557920E+02  0.00000000000E+00 0.  1.
      99925    2    1    2    0    0 -0.15841269851E+02 -0.18303927163E+02  0.61427220034E+03  0.66864489106E+03  0.26300128261E+03 0.  0.
         25    1    1    2    0    0  0.15841269851E+02  0.18303927163E+02  0.70942961885E+03  0.72078004397E+03  0.12509000000E+03 0.  0.
         25    1    3    3    0    0 -0.45031430041E+02 -0.50772267075E+01  0.27123888721E+03  0.30211198248E+03  0.12509000000E+03 0.  0.
         25    1    3    3    0    0  0.29190160190E+02 -0.13226700455E+02  0.34303331313E+03  0.36653290859E+03  0.12509000000E+03 0.  0.
<mgrwt>
<rscale>  2 0.42227378E+03</rscale>
<asrwt>0</asrwt>
<pdfrwt beam="1">  1       21 0.19949458E+00 0.42227378E+03</pdfrwt>
<pdfrwt beam="2">  1       21 0.48325830E-02 0.42227378E+03</pdfrwt>
<totfact> 0.34618223E+04</totfact>
</mgrwt>
</event>
<event>
 6    0  0.1539497E-004  0.4114448E+03  0.7546771E-02  0.1039887E+00
         21   -1    0    0  502  501  0.00000000000E+00  0.00000000000E+00  0.84048959252E+02  0.84048959252E+02  0.00000000000E+00 0.  1.
         21   -1    0    0  501  502 -0.00000000000E+00 -0.00000000000E+00 -0.50353641417E+03  0.50353641417E+03  0.00000000000E+00 0.  1.
      99925    2    1    2    0    0 -0.24171060745E+02  0.34034794460E+02 -0.20596707789E+03  0.33662508390E+03  0.26296654259E+03 0.  0.
         25    1    3    3    0    0 -0.29663819329E+02  0.40378870323E+02 -0.70622033460E+02  0.15213604128E+03  0.12509000000E+03 0.  0.
         25    1    3    3    0    0  0.54927585841E+01 -0.63440758624E+01 -0.13534504443E+03  0.18448904262E+03  0.12509000000E+03 0.  0.
         25    1    1    2    0    0  0.24171060745E+02 -0.34034794460E+02 -0.21352037703E+03  0.25096028953E+03  0.12509000000E+03 0.  0.
<mgrwt>
<rscale>  2 0.41144483E+03</rscale>
<asrwt>0</asrwt>
<pdfrwt beam="1">  1       21 0.12360141E-01 0.41144483E+03</pdfrwt>
<pdfrwt beam="2">  1       21 0.74049470E-01 0.41144483E+03</pdfrwt>
<totfact> 0.85198029E+04</totfact>
</mgrwt>
</event>
<event>
 6    0  0.1539497E-004  0.4460126E+03  0.7546771E-02  0.1028918E+00
         21   -1    0    0  502  501  0.00000000000E+00  0.00000000000E+00  0.22697868018E+04  0.22697868018E+04  0.00000000000E+00 0. -1.
         21   -1    0    0  501  502 -0.00000000000E+00 -0.00000000000E+00 -0.21910345883E+02  0.21910345883E+02  0.00000000000E+00 0. -1.
      99925    2    1    2    0    0  0.62226764228E+02  0.33340403385E+02  0.10307409203E+04  0.10661155825E+04  0.26304341438E+03 0.  0.
         25    1    1    2    0    0 -0.62226764228E+02 -0.33340403385E+02  0.12171355356E+04  0.12255815652E+04  0.12509000000E+03 0.  0.
         25    1    3    3    0    0  0.50259458032E+02  0.45210994171E+02  0.63537006125E+03  0.65108576236E+03  0.12509000000E+03 0.  0.
         25    1    3    3    0    0  0.11967306196E+02 -0.11870590786E+02  0.39537085903E+03  0.41502982015E+03  0.12509000000E+03 0.  0.
<mgrwt>
<rscale>  2 0.44601262E+03</rscale>
<asrwt>0</asrwt>
<pdfrwt beam="1">  1       21 0.33379202E+00 0.44601262E+03</pdfrwt>
<pdfrwt beam="2">  1       21 0.32221112E-02 0.44601262E+03</pdfrwt>
<totfact> 0.10198901E+04</totfact>
</mgrwt>
</event>
<event>
 6    0  0.1539497E-004  0.4511318E+03  0.7546771E-02  0.1027385E+00
         21   -1    0    0  502  501  0.00000000000E+00  0.00000000000E+00  0.15635273715E+04  0.15635273715E+04  0.00000000000E+00 0. -1.
         21   -1    0    0  501  502 -0.00000000000E+00 -0.00000000000E+00 -0.32541789855E+02  0.32541789855E+02  0.00000000000E+00 0. -1.
      99925    2    1    2    0    0  0.93456402796E+02  0.56021695424E+02  0.96867619014E+03  0.10097996931E+04  0.26360828739E+03 0.  0.
         25    1    3    3    0    0  0.76655189124E+02  0.54188560553E+02  0.46724656435E+03  0.49272637245E+03  0.12509000000E+03 0.  0.
         25    1    1    2    0    0 -0.93456402796E+02 -0.56021695424E+02  0.56230939155E+03  0.58626946834E+03  0.12509000000E+03 0.  0.
         25    1    3    3    0    0  0.16801213672E+02  0.18331348713E+01  0.50142962580E+03  0.51707332061E+03  0.12509000000E+03 0.  0.
<mgrwt>
<rscale>  2 0.45113182E+03</rscale>
<asrwt>0</asrwt>
<pdfrwt beam="1">  1       21 0.22993045E+00 0.45113182E+03</pdfrwt>
<pdfrwt beam="2">  1       21 0.47855584E-02 0.45113182E+03</pdfrwt>
<totfact> 0.22177455E+04</totfact>
</mgrwt>
</event>
<event>
 6    0  0.1539497E-004  0.4194700E+03  0.7546771E-02  0.1037239E+00
         21   -1    0    0  502  501  0.00000000000E+00  0.00000000000E+00  0.23735382244E+03  0.23735382244E+03  0.00000000000E+00 0.  1.
         21   -1    0    0  501  502 -0.00000000000E+00 -0.00000000000E+00 -0.18532995484E+03  0.18532995484E+03  0.00000000000E+00 0.  1.
      99925    2    1    2    0    0 -0.51229221168E+01  0.73933763062E+02  0.33415530882E+02  0.27610197777E+03  0.26386219656E+03 0.  0.
         25    1    3    3    0    0  0.23926262920E+02  0.13187017203E+02  0.39252987571E+02  0.13392038162E+03  0.12509000000E+03 0.  0.
         25    1    3    3    0    0 -0.29049185037E+02  0.60746745859E+02 -0.58374566886E+01  0.14218159615E+03  0.12509000000E+03 0.  0.
         25    1    1    2    0    0  0.51229221168E+01 -0.73933763062E+02  0.18608336725E+02  0.14658179951E+03  0.12509000000E+03 0.  0.
<mgrwt>
<rscale>  2 0.41947001E+03</rscale>
<asrwt>0</asrwt>
<pdfrwt beam="1">  1       21 0.34904974E-01 0.41947001E+03</pdfrwt>
<pdfrwt beam="2">  1       21 0.27254405E-01 0.41947001E+03</pdfrwt>
<totfact> 0.95251103E+04</totfact>
</mgrwt>
</event>
<event>
 6    0  0.1539497E-004  0.4841160E+03  0.7546771E-02  0.1018010E+00
         21   -1    0    0  502  501  0.00000000000E+00  0.00000000000E+00  0.48446734115E+02  0.48446734115E+02  0.00000000000E+00 0.  1.
         21   -1    0    0  501  502 -0.00000000000E+00 -0.00000000000E+00 -0.12094123773E+04  0.12094123773E+04  0.00000000000E+00 0.  1.
      99925    2    1    2    0    0  0.96398921353E+02 -0.82100495918E+02 -0.86247228443E+03  0.91032632622E+03  0.26230199259E+03 0.  0.
         25    1    3    3    0    0  0.64359117042E+02 -0.40623791486E+02 -0.56023015780E+03  0.57904898428E+03  0.12509000000E+03 0.  0.
         25    1    1    2    0    0 -0.96398921353E+02  0.82100495918E+02 -0.29849335873E+03  0.34753278518E+03  0.12509000000E+03 0.  0.
         25    1    3    3    0    0  0.32039804311E+02 -0.41476704432E+02 -0.30224212663E+03  0.33127734194E+03  0.12509000000E+03 0.  0.
<mgrwt>
<rscale>  2 0.48411602E+03</rscale>
<asrwt>0</asrwt>
<pdfrwt beam="1">  1       21 0.71245200E-02 0.48411602E+03</pdfrwt>
<pdfrwt beam="2">  1       21 0.17785476E+00 0.48411602E+03</pdfrwt>
<totfact> 0.24357000E+04</totfact>
</mgrwt>
</event>
<event>
 6    0  0.1539497E-004  0.4598158E+03  0.7546771E-02  0.1024835E+00
         21   -1    0    0  502  501  0.00000000000E+00  0.00000000000E+00  0.18981838133E+03  0.18981838133E+03  0.00000000000E+00 0.  1.
         21   -1    0    0  501  502 -0.00000000000E+00 -0.00000000000E+00 -0.27846435666E+03  0.27846435666E+03  0.00000000000E+00 0.  1.
      99925    2    1    2    0    0 -0.89154000267E+02 -0.45793100330E+02  0.71443758864E+01  0.28155099648E+03  0.26301041369E+03 0.  0.
         25    1    3    3    0    0 -0.33982120520E+02 -0.11959968746E+02  0.41409599049E+02  0.13660193396E+03  0.12509000000E+03 0.  0.
         25    1    1    2    0    0  0.89154000267E+02  0.45793100330E+02 -0.95790351219E+02  0.18673174151E+03  0.12509000000E+03 0.  0.
         25    1    3    3    0    0 -0.55171879747E+02 -0.33833131584E+02 -0.34265223163E+02  0.14494906252E+03  0.12509000000E+03 0.  0.
<mgrwt>
<rscale>  2 0.45981585E+03</rscale>
<asrwt>0</asrwt>
<pdfrwt beam="1">  1       21 0.27914468E-01 0.45981585E+03</pdfrwt>
<pdfrwt beam="2">  1       21 0.40950640E-01 0.45981585E+03</pdfrwt>
<totfact> 0.65041380E+04</totfact>
</mgrwt>
</event>
<event>
 6    0  0.1539497E-004  0.4909142E+03  0.7546771E-02  0.1016178E+00
         21   -1    0    0  502  501  0.00000000000E+00  0.00000000000E+00  0.17580769159E+03  0.17580769159E+03  0.00000000000E+00 0. -1.
         21   -1    0    0  501  502 -0.00000000000E+00 -0.00000000000E+00 -0.34269942447E+03  0.34269942447E+03  0.00000000000E+00 0. -1.
      99925    2    1    2    0    0  0.12752233447E+03 -0.63730069696E+01 -0.31132722553E+02  0.29405093327E+03  0.26304779782E+03 0.  0.
         25    1    1    2    0    0 -0.12752233447E+03  0.63730069696E+01 -0.13575901033E+03  0.22445618279E+03  0.12509000000E+03 0.  0.
         25    1    3    3    0    0  0.52817046562E+02  0.35285115219E+02 -0.24113014010E+02  0.14235036111E+03  0.12509000000E+03 0.  0.
         25    1    3    3    0    0  0.74705287910E+02 -0.41658122189E+02 -0.70197085424E+01  0.15170057216E+03  0.12509000000E+03 0.  0.
<mgrwt>
<rscale>  2 0.49091423E+03</rscale>
<asrwt>0</asrwt>
<pdfrwt beam="1">  1       21 0.25854072E-01 0.49091423E+03</pdfrwt>
<pdfrwt beam="2">  1       21 0.50396974E-01 0.49091423E+03</pdfrwt>
<totfact> 0.48588632E+04</totfact>
</mgrwt>
</event>
<event>
 6    0  0.1539497E-004  0.4043386E+03  0.7546771E-02  0.1042288E+00
         21   -1    0    0  502  501  0.00000000000E+00  0.00000000000E+00  0.52930083733E+03  0.52930083733E+03  0.00000000000E+00 0.  1.
         21   -1    0    0  501  502 -0.00000000000E+00 -0.00000000000E+00 -0.77219644901E+02  0.77219644901E+02  0.00000000000E+00 0.  1.
      99925    2    1    2    0    0  0.23706148068E+02  0.42816494940E+02  0.26773696953E+03  0.37842941640E+03  0.26292680474E+03 0.  0.
         25    1    3    3    0    0  0.36411893789E+02  0.52464736237E+02  0.15643396653E+03  0.21023193987E+03  0.12509000000E+03 0.  0.
         25    1    3    3    0    0 -0.12705745721E+02 -0.96482412971E+01  0.11130300300E+03  0.16819747653E+03  0.12509000000E+03 0.  0.
         25    1    1    2    0    0 -0.23706148068E+02 -0.42816494940E+02  0.18434422291E+03  0.22809106584E+03  0.12509000000E+03 0.  0.
<mgrwt>
<rscale>  2 0.40433858E+03</rscale>
<asrwt>0</asrwt>
<pdfrwt beam="1">  1       21 0.77838357E-01 0.40433858E+03</pdfrwt>
<pdfrwt beam="2">  1       21 0.11355830E-01 0.40433858E+03</pdfrwt>
<totfact> 0.88824465E+04</totfact>
</mgrwt>
</event>
<event>
 6    0  0.1539497E-004  0.5007295E+03  0.7546771E-02  0.1013589E+00
         21   -1    0    0  502  501  0.00000000000E+00  0.00000000000E+00  0.57819753785E+02  0.57819753785E+02  0.00000000000E+00 0.  1.
         21   -1    0    0  501  502 -0.00000000000E+00 -0.00000000000E+00 -0.10841017477E+04  0.10841017477E+04  0.00000000000E+00 0.  1.
      99925    2    1    2    0    0  0.15010778208E+03 -0.26734774105E+02 -0.62846633619E+03  0.69790359642E+03  0.26239740812E+03 0.  0.
         25    1    1    2    0    0 -0.15010778208E+03  0.26734774105E+02 -0.39781565777E+03  0.44401790510E+03  0.12509000000E+03 0.  0.
         25    1    3    3    0    0  0.77487106304E+02  0.72603960807E+01 -0.23550239891E+03  0.27778742409E+03  0.12509000000E+03 0.  0.
         25    1    3    3    0    0  0.72620675779E+02 -0.33995170186E+02 -0.39296393728E+03  0.42011617232E+03  0.12509000000E+03 0.  0.
<mgrwt>
<rscale>  2 0.50072945E+03</rscale>
<asrwt>0</asrwt>
<pdfrwt beam="1">  1       21 0.85029054E-02 0.50072945E+03</pdfrwt>
<pdfrwt beam="2">  1       21 0.15942672E+00 0.50072945E+03</pdfrwt>
<totfact> 0.24205583E+04</totfact>
</mgrwt>
</event>
<event>
 6    0  0.1539497E-004  0.4093371E+03  0.7546771E-02  0.1040594E+00
         21   -1    0    0  502  501  0.00000000000E+00  0.00000000000E+00  0.64156572545E+03  0.64156572545E+03  0.00000000000E+00 0.  1.
         21   -1    0    0  501  502 -0.00000000000E+00 -0.00000000000E+00 -0.65292162681E+02  0.65292162681E+02  0.00000000000E+00 0.  1.
      99925    2    1    2    0    0  0.48111929121E+01  0.56706319518E+02  0.34077204520E+03  0.43419100872E+03  0.26297811889E+03 0.  0.
         25    1    1    2    0    0 -0.48111929121E+01 -0.56706319518E+02  0.23550151757E+03  0.27266687941E+03  0.12509000000E+03 0.  0.
         25    1    3    3    0    0  0.86836101235E+01 -0.12512165095E+02  0.15611080856E+03  0.20062415609E+03  0.12509000000E+03 0.  0.
         25    1    3    3    0    0 -0.38724172113E+01  0.69218484614E+02  0.18466123665E+03  0.23356685263E+03  0.12509000000E+03 0.  0.
<mgrwt>
<rscale>  2 0.40933709E+03</rscale>
<asrwt>0</asrwt>
<pdfrwt beam="1">  1       21 0.94347897E-01 0.40933709E+03</pdfrwt>
<pdfrwt beam="2">  1       21 0.96017890E-02 0.40933709E+03</pdfrwt>
<totfact> 0.76545871E+04</totfact>
</mgrwt>
</event>
<event>
 6    0  0.1539497E-004  0.3991804E+03  0.7546771E-02  0.1044064E+00
         21   -1    0    0  502  501  0.00000000000E+00  0.00000000000E+00  0.86336880572E+02  0.86336880572E+02  0.00000000000E+00 0. -1.
         21   -1    0    0  501  502 -0.00000000000E+00 -0.00000000000E+00 -0.46140481940E+03  0.46140481940E+03  0.00000000000E+00 0. -1.
      99925    2    1    2    0    0 -0.15662214139E+02 -0.17401010749E+02 -0.29979848536E+03  0.39988670732E+03  0.26359466372E+03 0.  0.
         25    1    1    2    0    0  0.15662214139E+02  0.17401010749E+02 -0.75269453472E+02  0.14785499265E+03  0.12509000000E+03 0.  0.
         25    1    3    3    0    0 -0.18258994431E+02  0.20726875785E+02 -0.10702153370E+03  0.16692546550E+03  0.12509000000E+03 0.  0.
         25    1    3    3    0    0  0.25967802920E+01 -0.38127886534E+02 -0.19277695165E+03  0.23296124181E+03  0.12509000000E+03 0.  0.
<mgrwt>
<rscale>  2 0.39918042E+03</rscale>
<asrwt>0</asrwt>
<pdfrwt beam="1">  1       21 0.12696600E-01 0.39918042E+03</pdfrwt>
<pdfrwt beam="2">  1       21 0.67853649E-01 0.39918042E+03</pdfrwt>
<totfact> 0.99025192E+04</totfact>
</mgrwt>
</event>
<event>
 6    0  0.1539497E-004  0.4305517E+03  0.7546771E-02  0.1033686E+00
         21   -1    0    0  502  501  0.00000000000E+00  0.00000000000E+00  0.69435230756E+02  0.69435230756E+02  0.00000000000E+00 0. -1.
         21   -1    0    0  501  502 -0.00000000000E+00 -0.00000000000E+00 -0.66743758986E+03  0.66743758986E+03  0.00000000000E+00 0. -1.
      99925    2    1    2    0    0 -0.82595580854E+02  0.26679556669E+02 -0.41149104245E+03  0.49610777319E+03  0.26318095654E+03 0.  0.
         25    1    1    2    0    0  0.82595580854E+02 -0.26679556669E+02 -0.18651131666E+03  0.24076504743E+03  0.12509000000E+03 0.  0.
         25    1    3    3    0    0 -0.66782085780E+01  0.13762075330E+02 -0.14753949254E+03  0.19403454111E+03  0.12509000000E+03 0.  0.
         25    1    3    3    0    0 -0.75917372276E+02  0.12917481339E+02 -0.26395154991E+03  0.30207323208E+03  0.12509000000E+03 0.  0.
<mgrwt>
<rscale>  2 0.43055166E+03</rscale>
<asrwt>0</asrwt>
<pdfrwt beam="1">  1       21 0.10211063E-01 0.43055166E+03</pdfrwt>
<pdfrwt beam="2">  1       21 0.98152595E-01 0.43055166E+03</pdfrwt>
<totfact> 0.62038426E+04</totfact>
</mgrwt>
</event>
<event>
 6    0  0.1539497E-004  0.4105117E+03  0.7546771E-02  0.1040199E+00
         21   -1    0    0  502  501  0.00000000000E+00  0.00000000000E+00  0.17836007760E+03  0.17836007760E+03  0.00000000000E+00 0. -1.
         21   -1    0    0  501  502 -0.00000000000E+00 -0.00000000000E+00 -0.23620736211E+03  0.23620736211E+03  0.00000000000E+00 0. -1.
      99925    2    1    2    0    0  0.52056658587E+02 -0.18080437165E+01 -0.73728651329E+02  0.27813837155E+03  0.26308149873E+03 0.  0.
         25    1    3    3    0    0  0.44679052975E+02  0.68488351576E+01 -0.10283558644E+01  0.13301011215E+03  0.12509000000E+03 0.  0.
         25    1    3    3    0    0  0.73776056121E+01 -0.86568788740E+01 -0.72700295465E+02  0.14512825940E+03  0.12509000000E+03 0.  0.
         25    1    1    2    0    0 -0.52056658587E+02  0.18080437165E+01  0.15881366823E+02  0.13642906815E+03  0.12509000000E+03 0.  0.
<mgrwt>
<rscale>  2 0.41051170E+03</rscale>
<asrwt>0</asrwt>
<pdfrwt beam="1">  1       21 0.26229423E-01 0.41051170E+03</pdfrwt>
<pdfrwt beam="2">  1       21 0.34736377E-01 0.41051170E+03</pdfrwt>
<totfact> 0.10386316E+05</totfact>
</mgrwt>
</event>
<event>
 6    0  0.1539497E-004  0.3998819E+03  0.7546771E-02  0.1043821E+00
         21   -1    0    0  502  501  0.00000000000E+00  0.00000000000E+00  0.10901891723E+03  0.10901891723E+03  0.00000000000E+00 0. -1.
         21   -1    0    0  501  502 -0.00000000000E+00 -0.00000000000E+00 -0.36669210563E+03  0.36669210563E+03  0.00000000000E+00 0. -1.
      99925    2    1    2    0    0  0.43220854504E+02  0.12303858782E+02 -0.18002509521E+03  0.32177544646E+03  0.26288966475E+03 0.  0.
         25    1    3    3    0    0  0.40698091951E+02  0.18274183936E+02 -0.13307593026E+03  0.18800795675E+03  0.12509000000E+03 0.  0.
         25    1    1    2    0    0 -0.43220854504E+02 -0.12303858782E+02 -0.77648093194E+02  0.15393557640E+03  0.12509000000E+03 0.  0.
         25    1    3    3    0    0  0.25227625539E+01 -0.59703251535E+01 -0.46949164954E+02  0.13376748971E+03  0.12509000000E+03 0.  0.
<mgrwt>
<rscale>  2 0.39988186E+03</rscale>
<asrwt>0</asrwt>
<pdfrwt beam="1">  1       21 0.16032194E-01 0.39988186E+03</pdfrwt>
<pdfrwt beam="2">  1       21 0.53925309E-01 0.39988186E+03</pdfrwt>
<totfact> 0.10650399E+05</totfact>
</mgrwt>
</event>
<event>
 6    0  0.1539497E-004  0.4376254E+03  0.7546771E-02  0.1031478E+00
         21   -1    0    0  502  501  0.00000000000E+00  0.00000000000E+00  0.15291254569E+03  0.15291254569E+03  0.00000000000E+00 0.  1.
         21   -1    0    0  501  502 -0.00000000000E+00 -0.00000000000E+00 -0.31311359792E+03  0.31311359792E+03  0.00000000000E+00 0.  1.
      99925    2    1    2    0    0 -0.19774397253E+02  0.84207882359E+02 -0.14665384533E+03  0.31334009594E+03  0.26304499831E+03 0.  0.
         25    1    3    3    0    0 -0.24316987454E+02  0.33753521165E+01 -0.76255809198E+02  0.14854347989E+03  0.12509000000E+03 0.  0.
         25    1    1    2    0    0  0.19774397253E+02 -0.84207882359E+02 -0.13547206900E+02  0.15268604767E+03  0.12509000000E+03 0.  0.
         25    1    3    3    0    0  0.45425902008E+01  0.80832530243E+02 -0.70398036135E+02  0.16479661605E+03  0.12509000000E+03 0.  0.
<mgrwt>
<rscale>  2 0.43762540E+03</rscale>
<asrwt>0</asrwt>
<pdfrwt beam="1">  1       21 0.22487139E-01 0.43762540E+03</pdfrwt>
<pdfrwt beam="2">  1       21 0.46046117E-01 0.43762540E+03</pdfrwt>
<totfact> 0.77936870E+04</totfact>
</mgrwt>
</event>
<event>
 6    0  0.1539497E-004  0.4155403E+03  0.7546771E-02  0.1038528E+00
         21   -1    0    0  502  501  0.00000000000E+00  0.00000000000E+00  0.35804197559E+03  0.35804197559E+03  0.00000000000E+00 0.  1.
         21   -1    0    0  501  502 -0.00000000000E+00 -0.00000000000E+00 -0.12056807510E+03  0.12056807510E+03  0.00000000000E+00 0.  1.
      99925    2    1    2    0    0  0.69953113791E+02  0.50922847686E+01  0.14918826897E+03  0.31020212235E+03  0.26277147413E+03 0.  0.
         25    1    3    3    0    0  0.16635748477E+02  0.41651542668E+01  0.30936127583E+02  0.12999480269E+03  0.12509000000E+03 0.  0.
         25    1    3    3    0    0  0.53317365314E+02  0.92713050180E+00  0.11825214138E+03  0.18020731965E+03  0.12509000000E+03 0.  0.
         25    1    1    2    0    0 -0.69953113791E+02 -0.50922847686E+01  0.88285631530E+02  0.16840792834E+03  0.12509000000E+03 0.  0.
<mgrwt>
<rscale>  2 0.41554028E+03</rscale>
<asrwt>0</asrwt>
<pdfrwt beam="1">  1       21 0.52653232E-01 0.41554028E+03</pdfrwt>
<pdfrwt beam="2">  1       21 0.17730599E-01 0.41554028E+03</pdfrwt>
<totfact> 0.92563811E+04</totfact>
</mgrwt>
</event>
<event>
 6    0  0.1539497E-004  0.3941196E+03  0.7546771E-02  0.1045835E+00
         21   -1    0    0  502  501  0.00000000000E+00  0.00000000000E+00  0.72915680581E+03  0.72915680581E+03  0.00000000000E+00 0. -1.
         21   -1    0    0  501  502 -0.00000000000E+00 -0.00000000000E+00 -0.53256798720E+02  0.53256798720E+02  0.00000000000E+00 0. -1.
      99925    2    1    2    0    0  0.29891517752E+02  0.27871483268E+01  0.43274875420E+03  0.50732941576E+03  0.26307865897E+03 0.  0.
         25    1    1    2    0    0 -0.29891517752E+02 -0.27871483268E+01  0.24315125288E+03  0.27508418876E+03  0.12509000000E+03 0.  0.
         25    1    3    3    0    0  0.33753642127E+02  0.19863363545E+02  0.16062458063E+03  0.20732010411E+03  0.12509000000E+03 0.  0.
         25    1    3    3    0    0 -0.38621243744E+01 -0.17076215218E+02  0.27212417358E+03  0.30000931165E+03  0.12509000000E+03 0.  0.
<mgrwt>
<rscale>  2 0.39411956E+03</rscale>
<asrwt>0</asrwt>
<pdfrwt beam="1">  1       21 0.10722894E+00 0.39411956E+03</pdfrwt>
<pdfrwt beam="2">  1       21 0.78318826E-02 0.39411956E+03</pdfrwt>
<totfact> 0.80897036E+04</totfact>
</mgrwt>
</event>
<event>
 6    0  0.1539497E-004  0.4085305E+03  0.7546771E-02  0.1040865E+00
         21   -1    0    0  502  501  0.00000000000E+00  0.00000000000E+00  0.13543616296E+04  0.13543616296E+04  0.00000000000E+00 0. -1.
         21   -1    0    0  501  502 -0.00000000000E+00 -0.00000000000E+00 -0.30807356074E+02  0.30807356074E+02  0.00000000000E+00 0. -1.
      99925    2    1    2    0    0  0.50592293919E+02 -0.13615633335E+02  0.77428549070E+03  0.81940519259E+03  0.26298646898E+03 0.  0.
         25    1    1    2    0    0 -0.50592293919E+02  0.13615633335E+02  0.54926878286E+03  0.56576379312E+03  0.12509000000E+03 0.  0.
         25    1    3    3    0    0  0.40503956252E+02  0.25481771999E+02  0.44951749921E+03  0.46904518052E+03  0.12509000000E+03 0.  0.
         25    1    3    3    0    0  0.10088337667E+02 -0.39097405334E+02  0.32476799149E+03  0.35036001207E+03  0.12509000000E+03 0.  0.
<mgrwt>
<rscale>  2 0.40853054E+03</rscale>
<asrwt>0</asrwt>
<pdfrwt beam="1">  1       21 0.19917079E+00 0.40853054E+03</pdfrwt>
<pdfrwt beam="2">  1       21 0.45304944E-02 0.40853054E+03</pdfrwt>
<totfact> 0.39039373E+04</totfact>
</mgrwt>
</event>
<event>
 6    0  0.1539497E-004  0.4263705E+03  0.7546771E-02  0.1035013E+00
         21   -1    0    0  502  501  0.00000000000E+00  0.00000000000E+00  0.29436883337E+03  0.29436883337E+03  0.00000000000E+00 0. -1.
         21   -1    0    0  501  502 -0.00000000000E+00 -0.00000000000E+00 -0.15439121327E+03  0.15439121327E+03  0.00000000000E+00 0. -1.
      99925    2    1    2    0    0 -0.43533396969E+02 -0.56229849715E+02  0.44545187003E+02  0.27609907817E+03  0.26303892227E+03 0.  0.
         25    1    3    3    0    0 -0.19926870837E+02  0.13055127655E+02  0.15401219968E+02  0.12826621619E+03  0.12509000000E+03 0.  0.
         25    1    1    2    0    0  0.43533396969E+02  0.56229849715E+02  0.95432433095E+02  0.17266096848E+03  0.12509000000E+03 0.  0.
         25    1    3    3    0    0 -0.23606526133E+02 -0.69284977370E+02  0.29143967035E+02  0.14783286198E+03  0.12509000000E+03 0.  0.
<mgrwt>
<rscale>  2 0.42637055E+03</rscale>
<asrwt>0</asrwt>
<pdfrwt beam="1">  1       21 0.43289534E-01 0.42637055E+03</pdfrwt>
<pdfrwt beam="2">  1       21 0.22704590E-01 0.42637055E+03</pdfrwt>
<totfact> 0.87243321E+04</totfact>
</mgrwt>
</event>
<event>
 6    0  0.1539497E-004  0.4373265E+03  0.7546771E-02  0.1031570E+00
         21   -1    0    0  502  501  0.00000000000E+00  0.00000000000E+00  0.13425854353E+04  0.13425854353E+04  0.00000000000E+00 0.  1.
         21   -1    0    0  501  502 -0.00000000000E+00 -0.00000000000E+00 -0.35613092450E+02  0.35613092450E+02  0.00000000000E+00 0.  1.
      99925    2    1    2    0    0 -0.85059641102E+02  0.82089855529E+01  0.70935183575E+03  0.76167577181E+03  0.26394587417E+03 0.  0.
         25    1    1    2    0    0  0.85059641102E+02 -0.82089855529E+01  0.59762050711E+03  0.61652275596E+03  0.12509000000E+03 0.  0.
         25    1    3    3    0    0 -0.51379779080E+02 -0.37003594667E+02  0.35344682348E+03  0.38023849469E+03  0.12509000000E+03 0.  0.
         25    1    3    3    0    0 -0.33679862022E+02  0.45212580220E+02  0.35590501227E+03  0.38143727712E+03  0.12509000000E+03 0.  0.
<mgrwt>
<rscale>  2 0.43732651E+03</rscale>
<asrwt>0</asrwt>
<pdfrwt beam="1">  1       21 0.19743900E+00 0.43732651E+03</pdfrwt>
<pdfrwt beam="2">  1       21 0.52372204E-02 0.43732651E+03</pdfrwt>
<totfact> 0.30957893E+04</totfact>
</mgrwt>
</event>
<event>
 6    0  0.1539497E-004  0.4147194E+03  0.7546771E-02  0.1038799E+00
         21   -1    0    0  502  501  0.00000000000E+00  0.00000000000E+00  0.82334445448E+03  0.82334445448E+03  0.00000000000E+00 0. -1.
         21   -1    0    0  501  502 -0.00000000000E+00 -0.00000000000E+00 -0.52223650063E+02  0.52223650063E+02  0.00000000000E+00 0. -1.
      99925    2    1    2    0    0 -0.10476191398E+02 -0.67979065776E+02  0.51443074535E+03  0.58185361989E+03  0.26302801990E+03 0.  0.
         25    1    1    2    0    0  0.10476191398E+02  0.67979065776E+02  0.25669005907E+03  0.29371448465E+03  0.12509000000E+03 0.  0.
         25    1    3    3    0    0  0.21937306735E+02 -0.64866348814E+02  0.26761911963E+03  0.30324312016E+03  0.12509000000E+03 0.  0.
         25    1    3    3    0    0 -0.32413498133E+02 -0.31127169622E+01  0.24681162572E+03  0.27861049973E+03  0.12509000000E+03 0.  0.
<mgrwt>
<rscale>  2 0.41471944E+03</rscale>
<asrwt>0</asrwt>
<pdfrwt beam="1">  1       21 0.12108006E+00 0.41471944E+03</pdfrwt>
<pdfrwt beam="2">  1       21 0.76799490E-02 0.41471944E+03</pdfrwt>
<totfact> 0.61538602E+04</totfact>
</mgrwt>
</event>
<event>
 6    0  0.1539497E-004  0.4818388E+03  0.7546771E-02  0.1018631E+00
         21   -1    0    0  502  501  0.00000000000E+00  0.00000000000E+00  0.91356901744E+02  0.91356901744E+02  0.00000000000E+00 0.  1.
         21   -1    0    0  501  502 -0.00000000000E+00 -0.00000000000E+00 -0.63533409633E+03  0.63533409633E+03  0.00000000000E+00 0.  1.
      99925    2    1    2    0    0 -0.10369000357E+03 -0.88834537964E+02 -0.34232988058E+03  0.45291674925E+03  0.26325015220E+03 0.  0.
         25    1    3    3    0    0 -0.41458942099E+02 -0.66471966549E+02 -0.12412488665E+03  0.19285191677E+03  0.12509000000E+03 0.  0.
         25    1    3    3    0    0 -0.62231061473E+02 -0.22362571415E+02 -0.21820499393E+03  0.26006483247E+03  0.12509000000E+03 0.  0.
         25    1    1    2    0    0  0.10369000357E+03  0.88834537964E+02 -0.20164731400E+03  0.27377424882E+03  0.12509000000E+03 0.  0.
<mgrwt>
<rscale>  2 0.48183879E+03</rscale>
<asrwt>0</asrwt>
<pdfrwt beam="1">  1       21 0.13434838E-01 0.48183879E+03</pdfrwt>
<pdfrwt beam="2">  1       21 0.93431486E-01 0.48183879E+03</pdfrwt>
<totfact> 0.41903939E+04</totfact>
</mgrwt>
</event>
<event>
 6    0  0.1539497E-004  0.5467165E+03  0.7546771E-02  0.1002257E+00
         21   -1    0    0  502  501  0.00000000000E+00  0.00000000000E+00  0.62070574251E+03  0.62070574251E+03  0.00000000000E+00 0. -1.
         21   -1    0    0  501  502 -0.00000000000E+00 -0.00000000000E+00 -0.12038674184E+03  0.12038674184E+03  0.00000000000E+00 0. -1.
      99925    2    1    2    0    0 -0.11183270615E+02 -0.18035371443E+03  0.23339524130E+03  0.39533486799E+03  0.26299009741E+03 0.  0.
         25    1    3    3    0    0 -0.35966514254E+00 -0.92290841763E+02  0.67684106263E+02  0.16954756021E+03  0.12509000000E+03 0.  0.
         25    1    3    3    0    0 -0.10823605472E+02 -0.88062872670E+02  0.16571113503E+03  0.22578730778E+03  0.12509000000E+03 0.  0.
         25    1    1    2    0    0  0.11183270615E+02  0.18035371443E+03  0.26692375938E+03  0.34575761636E+03  0.12509000000E+03 0.  0.
<mgrwt>
<rscale>  2 0.54671653E+03</rscale>
<asrwt>0</asrwt>
<pdfrwt beam="1">  1       21 0.91280255E-01 0.54671653E+03</pdfrwt>
<pdfrwt beam="2">  1       21 0.17703933E-01 0.54671653E+03</pdfrwt>
<totfact> 0.26122367E+04</totfact>
</mgrwt>
</event>
<event>
 6    0  0.1539497E-004  0.4019503E+03  0.7546771E-02  0.1043106E+00
         21   -1    0    0  502  501  0.00000000000E+00  0.00000000000E+00  0.45990616145E+03  0.45990616145E+03  0.00000000000E+00 0.  1.
         21   -1    0    0  501  502 -0.00000000000E+00 -0.00000000000E+00 -0.87824455879E+02  0.87824455879E+02  0.00000000000E+00 0.  1.
      99925    2    1    2    0    0  0.37334352843E+02 -0.26575229108E+02  0.27157533990E+03  0.38085001826E+03  0.26304652529E+03 0.  0.
         25    1    1    2    0    0 -0.37334352843E+02  0.26575229108E+02  0.10050636567E+03  0.16688059907E+03  0.12509000000E+03 0.  0.
         25    1    3    3    0    0  0.52058509895E+02 -0.13720790317E+01  0.11058880721E+03  0.17489815160E+03  0.12509000000E+03 0.  0.
         25    1    3    3    0    0 -0.14724157052E+02 -0.25203150076E+02  0.16098653269E+03  0.20595186666E+03  0.12509000000E+03 0.  0.
<mgrwt>
<rscale>  2 0.40195029E+03</rscale>
<asrwt>0</asrwt>
<pdfrwt beam="1">  1       21 0.67633258E-01 0.40195029E+03</pdfrwt>
<pdfrwt beam="2">  1       21 0.12915361E-01 0.40195029E+03</pdfrwt>
<totfact> 0.96625408E+04</totfact>
</mgrwt>
</event>
<event>
 6    0  0.1539497E-004  0.4241679E+03  0.7546771E-02  0.1035718E+00
         21   -1    0    0  502  501  0.00000000000E+00  0.00000000000E+00  0.66960566403E+02  0.66960566403E+02  0.00000000000E+00 0.  1.
         21   -1    0    0  501  502 -0.00000000000E+00 -0.00000000000E+00 -0.67173255448E+03  0.67173255448E+03  0.00000000000E+00 0.  1.
      99925    2    1    2    0    0 -0.53527090372E+02  0.53386163157E+02 -0.34164803717E+03  0.43769984278E+03  0.26294968958E+03 0.  0.
         25    1    1    2    0    0  0.53527090372E+02 -0.53386163157E+02 -0.26312395091E+03  0.30099327810E+03  0.12509000000E+03 0.  0.
         25    1    3    3    0    0  0.11744556695E+02  0.24033151972E+02 -0.13741937491E+03  0.18774216284E+03  0.12509000000E+03 0.  0.
         25    1    3    3    0    0 -0.65271647067E+02  0.29353011185E+02 -0.20422866225E+03  0.24995767994E+03  0.12509000000E+03 0.  0.
<mgrwt>
<rscale>  2 0.42416786E+03</rscale>
<asrwt>0</asrwt>
<pdfrwt beam="1">  1       21 0.98471421E-02 0.42416786E+03</pdfrwt>
<pdfrwt beam="2">  1       21 0.98784199E-01 0.42416786E+03</pdfrwt>
<totfact> 0.65298130E+04</totfact>
</mgrwt>
</event>
<event>
 6    0  0.1539497E-004  0.4092373E+03  0.7546771E-02  0.1040627E+00
         21   -1    0    0  502  501  0.00000000000E+00  0.00000000000E+00  0.38916499442E+02  0.38916499442E+02  0.00000000000E+00 0.  1.
         21   -1    0    0  501  502 -0.00000000000E+00 -0.00000000000E+00 -0.10758620514E+04  0.10758620514E+04  0.00000000000E+00 0.  1.
      99925    2    1    2    0    0 -0.48695010748E+02 -0.31180954897E+01 -0.78401994065E+03  0.82842247957E+03  0.26308859865E+03 0.  0.
         25    1    1    2    0    0  0.48695010748E+02  0.31180954897E+01 -0.25292561127E+03  0.28635607123E+03  0.12509000000E+03 0.  0.
         25    1    3    3    0    0 -0.57744290091E+02 -0.25336555882E+02 -0.42303887767E+03  0.44562960429E+03  0.12509000000E+03 0.  0.
         25    1    3    3    0    0  0.90492793424E+01  0.22218460393E+02 -0.36098106298E+03  0.38279287528E+03  0.12509000000E+03 0.  0.
<mgrwt>
<rscale>  2 0.40923727E+03</rscale>
<asrwt>0</asrwt>
<pdfrwt beam="1">  1       21 0.57230142E-02 0.40923727E+03</pdfrwt>
<pdfrwt beam="2">  1       21 0.15821502E+00 0.40923727E+03</pdfrwt>
<totfact> 0.50835927E+04</totfact>
</mgrwt>
</event>
<event>
 6    0  0.1539497E-004  0.3946148E+03  0.7546771E-02  0.1045661E+00
         21   -1    0    0  502  501  0.00000000000E+00  0.00000000000E+00  0.33094213315E+03  0.33094213315E+03  0.00000000000E+00 0.  1.
         21   -1    0    0  501  502 -0.00000000000E+00 -0.00000000000E+00 -0.11763446505E+03  0.11763446505E+03  0.00000000000E+00 0.  1.
      99925    2    1    2    0    0 -0.33045760242E+02  0.61509455710E+01  0.14081706926E+03  0.30014394876E+03  0.26292030462E+03 0.  0.
         25    1    3    3    0    0 -0.24723334878E+02 -0.16229836573E+02  0.31575061324E+02  0.13235990133E+03  0.12509000000E+03 0.  0.
         25    1    3    3    0    0 -0.83224253643E+01  0.22380782145E+02  0.10924200794E+03  0.16778404743E+03  0.12509000000E+03 0.  0.
         25    1    1    2    0    0  0.33045760242E+02 -0.61509455710E+01  0.72490598837E+02  0.14843264944E+03  0.12509000000E+03 0.  0.
<mgrwt>
<rscale>  2 0.39461475E+03</rscale>
<asrwt>0</asrwt>
<pdfrwt beam="1">  1       21 0.48667960E-01 0.39461475E+03</pdfrwt>
<pdfrwt beam="2">  1       21 0.17299186E-01 0.39461475E+03</pdfrwt>
<totfact> 0.11509003E+05</totfact>
</mgrwt>
</event>
<event>
 6    0  0.1539497E-004  0.4750130E+03  0.7546771E-02  0.1020515E+00
         21   -1    0    0  502  501  0.00000000000E+00  0.00000000000E+00  0.68556707794E+03  0.68556707794E+03  0.00000000000E+00 0.  1.
         21   -1    0    0  501  502 -0.00000000000E+00 -0.00000000000E+00 -0.82281287898E+02  0.82281287898E+02  0.00000000000E+00 0.  1.
      99925    2    1    2    0    0  0.44727405206E+01  0.10098605713E+03  0.50798642250E+03  0.58090541546E+03  0.26302605788E+03 0.  0.
         25    1    1    2    0    0 -0.44727405206E+01 -0.10098605713E+03  0.95299367545E+02  0.18694295038E+03  0.12509000000E+03 0.  0.
         25    1    3    3    0    0  0.27858329699E+02  0.84126620215E+02  0.26828068325E+03  0.30899095111E+03  0.12509000000E+03 0.  0.
         25    1    3    3    0    0 -0.23385589178E+02  0.16859436913E+02  0.23970573924E+03  0.27191446435E+03  0.12509000000E+03 0.  0.
<mgrwt>
<rscale>  2 0.47501302E+03</rscale>
<asrwt>0</asrwt>
<pdfrwt beam="1">  1       21 0.10081868E+00 0.47501302E+03</pdfrwt>
<pdfrwt beam="2">  1       21 0.12100190E-01 0.47501302E+03</pdfrwt>
<totfact> 0.42309903E+04</totfact>
</mgrwt>
</event>
<event>
 6    0  0.1539497E-004  0.4357354E+03  0.7546771E-02  0.1032063E+00
         21   -1    0    0  502  501  0.00000000000E+00  0.00000000000E+00  0.17520669550E+03  0.17520669550E+03  0.00000000000E+00 0.  1.
         21   -1    0    0  501  502 -0.00000000000E+00 -0.00000000000E+00 -0.27091620742E+03  0.27091620742E+03  0.00000000000E+00 0.  1.
      99925    2    1    2    0    0  0.79117832765E+02 -0.15084703917E+02 -0.11112279525E+03  0.29654931850E+03  0.26288028249E+03 0.  0.
         25    1    1    2    0    0 -0.79117832765E+02  0.15084703917E+02  0.15413283338E+02  0.14957358442E+03  0.12509000000E+03 0.  0.
         25    1    3    3    0    0  0.20979913432E+02  0.27978578152E+02 -0.43253011222E+02  0.13689882645E+03  0.12509000000E+03 0.  0.
         25    1    3    3    0    0  0.58137919334E+02 -0.43063282069E+02 -0.67869784030E+02  0.15965049205E+03  0.12509000000E+03 0.  0.
<mgrwt>
<rscale>  2 0.43573539E+03</rscale>
<asrwt>0</asrwt>
<pdfrwt beam="1">  1       21 0.25765691E-01 0.43573539E+03</pdfrwt>
<pdfrwt beam="2">  1       21 0.39840618E-01 0.43573539E+03</pdfrwt>
<totfact> 0.80930612E+04</totfact>
</mgrwt>
</event>
<event>
 6    0  0.1539497E-004  0.4686762E+03  0.7546771E-02  0.1022295E+00
         21   -1    0    0  502  501  0.00000000000E+00  0.00000000000E+00  0.25628497061E+02  0.25628497061E+02  0.00000000000E+00 0.  1.
         21   -1    0    0  501  502 -0.00000000000E+00 -0.00000000000E+00 -0.21427063127E+04  0.21427063127E+04  0.00000000000E+00 0.  1.
      99925    2    1    2    0    0 -0.79344084618E+02 -0.31246823311E+02 -0.17426712222E+04  0.17644788292E+04  0.26307926986E+03 0.  0.
         25    1    3    3    0    0 -0.57102151803E-01 -0.28007430340E+02 -0.84450649522E+03  0.85417981011E+03  0.12509000000E+03 0.  0.
         25    1    3    3    0    0 -0.79286982466E+02 -0.32393929709E+01 -0.89816472702E+03  0.91029901912E+03  0.12509000000E+03 0.  0.
         25    1    1    2    0    0  0.79344084618E+02  0.31246823311E+02 -0.37440659335E+03  0.40385598049E+03  0.12509000000E+03 0.  0.
<mgrwt>
<rscale>  2 0.46867619E+03</rscale>
<asrwt>0</asrwt>
<pdfrwt beam="1">  1       21 0.37688971E-02 0.46867619E+03</pdfrwt>
<pdfrwt beam="2">  1       21 0.31510383E+00 0.46867619E+03</pdfrwt>
<totfact> 0.10041525E+04</totfact>
</mgrwt>
</event>
<event>
 6    0  0.1539497E-004  0.4269814E+03  0.7546771E-02  0.1034818E+00
         21   -1    0    0  502  501  0.00000000000E+00  0.00000000000E+00  0.68963911235E+03  0.68963911235E+03  0.00000000000E+00 0. -1.
         21   -1    0    0  501  502 -0.00000000000E+00 -0.00000000000E+00 -0.66090038403E+02  0.66090038403E+02  0.00000000000E+00 0. -1.
      99925    2    1    2    0    0 -0.73967673498E+02 -0.35205994218E+02  0.36846421713E+03  0.46004947436E+03  0.26299992549E+03 0.  0.
         25    1    1    2    0    0  0.73967673498E+02  0.35205994218E+02  0.25508485682E+03  0.29567967639E+03  0.12509000000E+03 0.  0.
         25    1    3    3    0    0 -0.70792279318E+02 -0.73618635390E+01  0.23033522061E+03  0.27160185161E+03  0.12509000000E+03 0.  0.
         25    1    3    3    0    0 -0.31753941799E+01 -0.27844130679E+02  0.13812899652E+03  0.18844762275E+03  0.12509000000E+03 0.  0.
<mgrwt>
<rscale>  2 0.42698138E+03</rscale>
<asrwt>0</asrwt>
<pdfrwt beam="1">  1       21 0.10141751E+00 0.42698138E+03</pdfrwt>
<pdfrwt beam="2">  1       21 0.97191237E-02 0.42698138E+03</pdfrwt>
<totfact> 0.62672404E+04</totfact>
</mgrwt>
</event>
<event>
 6    0  0.1539497E-004  0.4166584E+03  0.7546771E-02  0.1038159E+00
         21   -1    0    0  502  501  0.00000000000E+00  0.00000000000E+00  0.11688669448E+03  0.11688669448E+03  0.00000000000E+00 0. -1.
         21   -1    0    0  501  502 -0.00000000000E+00 -0.00000000000E+00 -0.37130882354E+03  0.37130882354E+03  0.00000000000E+00 0. -1.
      99925    2    1    2    0    0 -0.20714152856E+02  0.24036389636E+02 -0.24157123486E+03  0.35850558881E+03  0.26298815856E+03 0.  0.
         25    1    3    3    0    0 -0.48521246287E+02  0.26218841854E+02 -0.12713343857E+03  0.18668732767E+03  0.12509000000E+03 0.  0.
         25    1    1    2    0    0  0.20714152856E+02 -0.24036389636E+02 -0.12850894206E+02  0.12968992920E+03  0.12509000000E+03 0.  0.
         25    1    3    3    0    0  0.27807093431E+02 -0.21824522182E+01 -0.11443779629E+03  0.17181826114E+03  0.12509000000E+03 0.  0.
<mgrwt>
<rscale>  2 0.41665843E+03</rscale>
<asrwt>0</asrwt>
<pdfrwt beam="1">  1       21 0.17189220E-01 0.41665843E+03</pdfrwt>
<pdfrwt beam="2">  1       21 0.54604239E-01 0.41665843E+03</pdfrwt>
<totfact> 0.90716844E+04</totfact>
</mgrwt>
</event>
<event>
 6    0  0.1539497E-004  0.4272212E+03  0.7546771E-02  0.1034741E+00
         21   -1    0    0  502  501  0.00000000000E+00  0.00000000000E+00  0.20739568706E+03  0.20739568706E+03  0.00000000000E+00 0.  1.
         21   -1    0    0  501  502 -0.00000000000E+00 -0.00000000000E+00 -0.22001177843E+03  0.22001177843E+03  0.00000000000E+00 0.  1.
      99925    2    1    2    0    0  0.17323993960E+02 -0.32646072061E+02 -0.84194492892E+02  0.27862284782E+03  0.26301348237E+03 0.  0.
         25    1    3    3    0    0 -0.10347312306E+02 -0.12148503093E+02 -0.78938193038E+02  0.14877297947E+03  0.12509000000E+03 0.  0.
         25    1    3    3    0    0  0.27671306266E+02 -0.20497568968E+02 -0.52562998533E+01  0.12984986836E+03  0.12509000000E+03 0.  0.
         25    1    1    2    0    0 -0.17323993960E+02  0.32646072061E+02  0.71578401522E+02  0.14878461766E+03  0.12509000000E+03 0.  0.
<mgrwt>
<rscale>  2 0.42722123E+03</rscale>
<asrwt>0</asrwt>
<pdfrwt beam="1">  1       21 0.30499366E-01 0.42722123E+03</pdfrwt>
<pdfrwt beam="2">  1       21 0.32354673E-01 0.42722123E+03</pdfrwt>
<totfact> 0.88706844E+04</totfact>
</mgrwt>
</event>
<event>
 6    0  0.1539497E-004  0.4189005E+03  0.7546771E-02  0.1037425E+00
         21   -1    0    0  502  501  0.00000000000E+00  0.00000000000E+00  0.12048175765E+03  0.12048175765E+03  0.00000000000E+00 0.  1.
         21   -1    0    0  501  502 -0.00000000000E+00 -0.00000000000E+00 -0.36411652259E+03  0.36411652259E+03  0.00000000000E+00 0.  1.
      99925    2    1    2    0    0  0.18467296597E+02  0.70228023890E+02 -0.14007247740E+03  0.30670597607E+03  0.26301186371E+03 0.  0.
         25    1    1    2    0    0 -0.18467296597E+02 -0.70228023890E+02 -0.10356228754E+03  0.17789230417E+03  0.12509000000E+03 0.  0.
         25    1    3    3    0    0  0.17431423967E+02  0.28043673889E+02 -0.11336544459E+03  0.17201608737E+03  0.12509000000E+03 0.  0.
         25    1    3    3    0    0  0.10358726295E+01  0.42184350001E+02 -0.26707032807E+02  0.13468988870E+03  0.12509000000E+03 0.  0.
<mgrwt>
<rscale>  2 0.41890046E+03</rscale>
<asrwt>0</asrwt>
<pdfrwt beam="1">  1       21 0.17717906E-01 0.41890046E+03</pdfrwt>
<pdfrwt beam="2">  1       21 0.53546546E-01 0.41890046E+03</pdfrwt>
<totfact> 0.89344553E+04</totfact>
</mgrwt>
</event>
<event>
 6    0  0.1539497E-004  0.4659751E+03  0.7546771E-02  0.1023062E+00
         21   -1    0    0  502  501  0.00000000000E+00  0.00000000000E+00  0.22864542781E+04  0.22864542781E+04  0.00000000000E+00 0.  1.
         21   -1    0    0  501  502 -0.00000000000E+00 -0.00000000000E+00 -0.23741214814E+02  0.23741214814E+02  0.00000000000E+00 0.  1.
      99925    2    1    2    0    0  0.24186566596E+02 -0.11158855019E+03  0.16391416098E+04  0.16640330828E+04  0.26302830485E+03 0.  0.
         25    1    1    2    0    0 -0.24186566596E+02  0.11158855019E+03  0.62357145352E+03  0.64616241014E+03  0.12509000000E+03 0.  0.
         25    1    3    3    0    0  0.52042202010E+02 -0.66042021694E+02  0.86912422640E+03  0.88209657546E+03  0.12509000000E+03 0.  0.
         25    1    3    3    0    0 -0.27855635414E+02 -0.45546528499E+02  0.77001738339E+03  0.78193650733E+03  0.12509000000E+03 0.  0.
<mgrwt>
<rscale>  2 0.46597512E+03</rscale>
<asrwt>0</asrwt>
<pdfrwt beam="1">  1       21 0.33624313E+00 0.46597512E+03</pdfrwt>
<pdfrwt beam="2">  1       21 0.34913567E-02 0.46597512E+03</pdfrwt>
<totfact> 0.85239359E+03</totfact>
</mgrwt>
</event>
<event>
 6    0  0.1539497E-004  0.4989232E+03  0.7546771E-02  0.1014060E+00
         21   -1    0    0  502  501  0.00000000000E+00  0.00000000000E+00  0.19505815704E+03  0.19505815704E+03  0.00000000000E+00 0.  1.
         21   -1    0    0  501  502 -0.00000000000E+00 -0.00000000000E+00 -0.31903859428E+03  0.31903859428E+03  0.00000000000E+00 0.  1.
      99925    2    1    2    0    0  0.38940416887E+02 -0.14227376465E+03 -0.44464061080E+02  0.30498304456E+03  0.26320984892E+03 0.  0.
         25    1    3    3    0    0  0.82943745021E+00 -0.30651223597E+02 -0.67728004239E+01  0.12897117663E+03  0.12509000000E+03 0.  0.
         25    1    3    3    0    0  0.38110979437E+02 -0.11162254105E+03 -0.37691260656E+02  0.17601186794E+03  0.12509000000E+03 0.  0.
         25    1    1    2    0    0 -0.38940416887E+02  0.14227376465E+03 -0.79516376156E+02  0.20911370675E+03  0.12509000000E+03 0.  0.
<mgrwt>
<rscale>  2 0.49892316E+03</rscale>
<asrwt>0</asrwt>
<pdfrwt beam="1">  1       21 0.28685023E-01 0.49892316E+03</pdfrwt>
<pdfrwt beam="2">  1       21 0.46917440E-01 0.49892316E+03</pdfrwt>
<totfact> 0.46022516E+04</totfact>
</mgrwt>
</event>
<event>
 6    0  0.1539497E-004  0.4441273E+03  0.7546771E-02  0.1029488E+00
         21   -1    0    0  502  501  0.00000000000E+00  0.00000000000E+00  0.68756574394E+03  0.68756574394E+03  0.00000000000E+00 0.  1.
         21   -1    0    0  501  502 -0.00000000000E+00 -0.00000000000E+00 -0.71720075749E+02  0.71720075749E+02  0.00000000000E+00 0.  1.
      99925    2    1    2    0    0 -0.32716828163E+02  0.34475832173E+02  0.54694727527E+03  0.60877512075E+03  0.26305294497E+03 0.  0.
         25    1    1    2    0    0  0.32716828163E+02 -0.34475832173E+02  0.68898392912E+02  0.15051069894E+03  0.12509000000E+03 0.  0.
         25    1    3    3    0    0  0.17303461070E+02 -0.58706694873E+01  0.27241714657E+03  0.30032063593E+03  0.12509000000E+03 0.  0.
         25    1    3    3    0    0 -0.50020289233E+02  0.40346501660E+02  0.27453012871E+03  0.30845448481E+03  0.12509000000E+03 0.  0.
<mgrwt>
<rscale>  2 0.44412731E+03</rscale>
<asrwt>0</asrwt>
<pdfrwt beam="1">  1       21 0.10111261E+00 0.44412731E+03</pdfrwt>
<pdfrwt beam="2">  1       21 0.10547070E-01 0.44412731E+03</pdfrwt>
<totfact> 0.54284554E+04</totfact>
</mgrwt>
</event>
<event>
 6    0  0.1539497E-004  0.4295460E+03  0.7546771E-02  0.1034003E+00
         21   -1    0    0  502  501  0.00000000000E+00  0.00000000000E+00  0.26543781506E+04  0.26543781506E+04  0.00000000000E+00 0.  1.
         21   -1    0    0  501  502 -0.00000000000E+00 -0.00000000000E+00 -0.17377873980E+02  0.17377873980E+02  0.00000000000E+00 0.  1.
      99925    2    1    2    0    0  0.51220221158E+02  0.40962163082E+02  0.20572980603E+04  0.20750956710E+04  0.26314506439E+03 0.  0.
         25    1    3    3    0    0  0.24514067648E+01 -0.13068913098E+02  0.88401883020E+03  0.89292418835E+03  0.12509000000E+03 0.  0.
         25    1    3    3    0    0  0.48768814393E+02  0.54031076180E+02  0.11732792301E+04  0.11821714827E+04  0.12509000000E+03 0.  0.
         25    1    1    2    0    0 -0.51220221158E+02 -0.40962163082E+02  0.57970221627E+03  0.59666035355E+03  0.12509000000E+03 0.  0.
<mgrwt>
<rscale>  2 0.42954603E+03</rscale>
<asrwt>0</asrwt>
<pdfrwt beam="1">  1       21 0.39034945E+00 0.42954603E+03</pdfrwt>
<pdfrwt beam="2">  1       21 0.25555715E-02 0.42954603E+03</pdfrwt>
<totfact> 0.67741026E+03</totfact>
</mgrwt>
</event>
<event>
 6    0  0.1539497E-004  0.3885890E+03  0.7546771E-02  0.1047804E+00
         21   -1    0    0  502  501  0.00000000000E+00  0.00000000000E+00  0.47359836903E+03  0.47359836903E+03  0.00000000000E+00 0. -1.
         21   -1    0    0  501  502 -0.00000000000E+00 -0.00000000000E+00 -0.79709635300E+02  0.79709635300E+02  0.00000000000E+00 0. -1.
      99925    2    1    2    0    0 -0.30957349334E+01 -0.43544588934E+01  0.25562626906E+03  0.36678035993E+03  0.26297242843E+03 0.  0.
         25    1    1    2    0    0  0.30957349334E+01  0.43544588934E+01  0.13826246467E+03  0.18652764440E+03  0.12509000000E+03 0.  0.
         25    1    3    3    0    0  0.29928118541E+02 -0.44828720788E+01  0.16290985254E+03  0.20761241913E+03  0.12509000000E+03 0.  0.
         25    1    3    3    0    0 -0.33023853475E+02  0.12841318539E+00  0.92716416513E+02  0.15916794080E+03  0.12509000000E+03 0.  0.
<mgrwt>
<rscale>  2 0.38858900E+03</rscale>
<asrwt>0</asrwt>
<pdfrwt beam="1">  1       21 0.69646817E-01 0.38858900E+03</pdfrwt>
<pdfrwt beam="2">  1       21 0.11722005E-01 0.38858900E+03</pdfrwt>
<totfact> 0.10826606E+05</totfact>
</mgrwt>
</event>
<event>
 6    0  0.1539497E-004  0.4527972E+03  0.7546771E-02  0.1026891E+00
         21   -1    0    0  502  501  0.00000000000E+00  0.00000000000E+00  0.21562931653E+03  0.21562931653E+03  0.00000000000E+00 0. -1.
         21   -1    0    0  501  502 -0.00000000000E+00 -0.00000000000E+00 -0.23770575007E+03  0.23770575007E+03  0.00000000000E+00 0. -1.
      99925    2    1    2    0    0 -0.10288057364E+02  0.24080321615E+02  0.94166377695E+02  0.28057625994E+03  0.26300194855E+03 0.  0.
         25    1    3    3    0    0  0.82761122088E+01 -0.23451580503E+02  0.61467091989E+02  0.14157747758E+03  0.12509000000E+03 0.  0.
         25    1    1    2    0    0  0.10288057364E+02 -0.24080321615E+02 -0.11624281124E+03  0.17275880666E+03  0.12509000000E+03 0.  0.
         25    1    3    3    0    0 -0.18564169573E+02  0.47531902118E+02  0.32699285706E+02  0.13899878236E+03  0.12509000000E+03 0.  0.
<mgrwt>
<rscale>  2 0.45279721E+03</rscale>
<asrwt>0</asrwt>
<pdfrwt beam="1">  1       21 0.31710194E-01 0.45279721E+03</pdfrwt>
<pdfrwt beam="2">  1       21 0.34956728E-01 0.45279721E+03</pdfrwt>
<totfact> 0.69888248E+04</totfact>
</mgrwt>
</event>
<event>
 6    0  0.1539497E-004  0.3953660E+03  0.7546771E-02  0.1045396E+00
         21   -1    0    0  502  501  0.00000000000E+00  0.00000000000E+00  0.23991142596E+03  0.23991142596E+03  0.00000000000E+00 0.  1.
         21   -1    0    0  501  502 -0.00000000000E+00 -0.00000000000E+00 -0.16288748384E+03  0.16288748384E+03  0.00000000000E+00 0.  1.
      99925    2    1    2    0    0 -0.27140665870E+02  0.19771205712E+02  0.63016715332E+02  0.27252524852E+03  0.26300454055E+03 0.  0.
         25    1    3    3    0    0 -0.23416720973E+02  0.25512179614E+02  0.69211687875E+02  0.14709513917E+03  0.12509000000E+03 0.  0.
         25    1    3    3    0    0 -0.37239448977E+01 -0.57409739018E+01 -0.61949725423E+01  0.12543010935E+03  0.12509000000E+03 0.  0.
         25    1    1    2    0    0  0.27140665870E+02 -0.19771205712E+02  0.14007226792E+02  0.13027366127E+03  0.12509000000E+03 0.  0.
<mgrwt>
<rscale>  2 0.39536600E+03</rscale>
<asrwt>0</asrwt>
<pdfrwt beam="1">  1       21 0.35281092E-01 0.39536600E+03</pdfrwt>
<pdfrwt beam="2">  1       21 0.23954042E-01 0.39536600E+03</pdfrwt>
<totfact> 0.12040867E+05</totfact>
</mgrwt>
</event>
<event>
 6    0  0.1539497E-004  0.4076892E+03  0.7546771E-02  0.1041149E+00
         21   -1    0    0  502  501  0.00000000000E+00  0.00000000000E+00  0.11372065829E+03  0.11372065829E+03  0.00000000000E+00 0.  1.
         21   -1    0    0  501  502 -0.00000000000E+00 -0.00000000000E+00 -0.36539203543E+03  0.36539203543E+03  0.00000000000E+00 0.  1.
      99925    2    1    2    0    0  0.17671477059E+02  0.10253770014E+02 -0.10207888528E+03  0.28304422960E+03  0.26320432403E+03 0.  0.
         25    1    1    2    0    0 -0.17671477059E+02 -0.10253770014E+02 -0.14959249186E+03  0.19606846412E+03  0.12509000000E+03 0.  0.
         25    1    3    3    0    0 -0.46284977586E+01  0.14182436359E+01 -0.94211224576E+01  0.12553764398E+03  0.12509000000E+03 0.  0.
         25    1    3    3    0    0  0.22299974817E+02  0.88355263785E+01 -0.92657762825E+02  0.15750658562E+03  0.12509000000E+03 0.  0.
<mgrwt>
<rscale>  2 0.40768921E+03</rscale>
<asrwt>0</asrwt>
<pdfrwt beam="1">  1       21 0.16723626E-01 0.40768921E+03</pdfrwt>
<pdfrwt beam="2">  1       21 0.53734122E-01 0.40768921E+03</pdfrwt>
<totfact> 0.99035272E+04</totfact>
</mgrwt>
</event>
<event>
 6    0  0.1539497E-004  0.5423987E+03  0.7546771E-02  0.1003269E+00
         21   -1    0    0  502  501  0.00000000000E+00  0.00000000000E+00  0.36459978162E+02  0.36459978162E+02  0.00000000000E+00 0. -1.
         21   -1    0    0  501  502 -0.00000000000E+00 -0.00000000000E+00 -0.20172554068E+04  0.20172554068E+04  0.00000000000E+00 0. -1.
      99925    2    1    2    0    0  0.11298290759E+03  0.14300094224E+03 -0.12428466172E+04  0.12833710702E+04  0.26298133593E+03 0.  0.
         25    1    3    3    0    0  0.70033206374E+02  0.54172874998E+02 -0.47286693801E+03  0.49708148180E+03  0.12509000000E+03 0.  0.
         25    1    1    2    0    0 -0.11298290759E+03 -0.14300094224E+03 -0.73794881146E+03  0.77034431479E+03  0.12509000000E+03 0.  0.
         25    1    3    3    0    0  0.42949701215E+02  0.88828067243E+02 -0.76997967919E+03  0.78628958840E+03  0.12509000000E+03 0.  0.
<mgrwt>
<rscale>  2 0.54239870E+03</rscale>
<asrwt>0</asrwt>
<pdfrwt beam="1">  1       21 0.53617621E-02 0.54239870E+03</pdfrwt>
<pdfrwt beam="2">  1       21 0.29665517E+00 0.54239870E+03</pdfrwt>
<totfact> 0.68768698E+03</totfact>
</mgrwt>
</event>
<event>
 6    0  0.1539497E-004  0.4208818E+03  0.7546771E-02  0.1036780E+00
         21   -1    0    0  502  501  0.00000000000E+00  0.00000000000E+00  0.28670384624E+03  0.28670384624E+03  0.00000000000E+00 0.  1.
         21   -1    0    0  501  502 -0.00000000000E+00 -0.00000000000E+00 -0.15446384774E+03  0.15446384774E+03  0.00000000000E+00 0.  1.
      99925    2    1    2    0    0 -0.16683738393E+02  0.38356597087E+02  0.18549705878E+02  0.26703393389E+03  0.26308450087E+03 0.  0.
         25    1    3    3    0    0  0.20817132500E+02  0.15153859308E+02 -0.19160227378E+02  0.12914184012E+03  0.12509000000E+03 0.  0.
         25    1    1    2    0    0  0.16683738393E+02 -0.38356597087E+02  0.11369029262E+03  0.17413376009E+03  0.12509000000E+03 0.  0.
         25    1    3    3    0    0 -0.37500870893E+02  0.23202737779E+02  0.37709933256E+02  0.13789209377E+03  0.12509000000E+03 0.  0.
<mgrwt>
<rscale>  2 0.42088183E+03</rscale>
<asrwt>0</asrwt>
<pdfrwt beam="1">  1       21 0.42162330E-01 0.42088183E+03</pdfrwt>
<pdfrwt beam="2">  1       21 0.22715272E-01 0.42088183E+03</pdfrwt>
<totfact> 0.92175236E+04</totfact>
</mgrwt>
</event>
<event>
 6    0  0.1539497E-004  0.4244802E+03  0.7546771E-02  0.1035618E+00
         21   -1    0    0  502  501  0.00000000000E+00  0.00000000000E+00  0.11084518657E+03  0.11084518657E+03  0.00000000000E+00 0.  1.
         21   -1    0    0  501  502 -0.00000000000E+00 -0.00000000000E+00 -0.40638541102E+03  0.40638541102E+03  0.00000000000E+00 0.  1.
      99925    2    1    2    0    0 -0.23142746368E+02  0.71365782564E+02 -0.15334360262E+03  0.31352480732E+03  0.26297315968E+03 0.  0.
         25    1    1    2    0    0  0.23142746368E+02 -0.71365782564E+02 -0.14219662182E+03  0.20370579027E+03  0.12509000000E+03 0.  0.
         25    1    3    3    0    0 -0.14910345322E+02  0.18457948307E+02 -0.11645155842E+03  0.17254416192E+03  0.12509000000E+03 0.  0.
         25    1    3    3    0    0 -0.82324010459E+01  0.52907834257E+02 -0.36892044200E+02  0.14098064540E+03  0.12509000000E+03 0.  0.
<mgrwt>
<rscale>  2 0.42448023E+03</rscale>
<asrwt>0</asrwt>
<pdfrwt beam="1">  1       21 0.16300763E-01 0.42448023E+03</pdfrwt>
<pdfrwt beam="2">  1       21 0.59762559E-01 0.42448023E+03</pdfrwt>
<totfact> 0.82227318E+04</totfact>
</mgrwt>
</event>
<event>
 6    0  0.1539497E-004  0.4338951E+03  0.7546771E-02  0.1032637E+00
         21   -1    0    0  502  501  0.00000000000E+00  0.00000000000E+00  0.25625673734E+02  0.25625673734E+02  0.00000000000E+00 0.  1.
         21   -1    0    0  501  502 -0.00000000000E+00 -0.00000000000E+00 -0.18366830406E+04  0.18366830406E+04  0.00000000000E+00 0.  1.
      99925    2    1    2    0    0  0.29596620807E+02 -0.53582114242E+02 -0.86641495183E+03  0.90745594908E+03  0.26278209193E+03 0.  0.
         25    1    3    3    0    0  0.27940487128E+02 -0.60900763550E+02 -0.39690168358E+03  0.42150685445E+03  0.12509000000E+03 0.  0.
         25    1    3    3    0    0  0.16561336796E+01  0.73186493080E+01 -0.46951326826E+03  0.48594909463E+03  0.12509000000E+03 0.  0.
         25    1    1    2    0    0 -0.29596620807E+02  0.53582114242E+02 -0.94464241505E+03  0.95485276527E+03  0.12509000000E+03 0.  0.
<mgrwt>
<rscale>  2 0.43389510E+03</rscale>
<asrwt>0</asrwt>
<pdfrwt beam="1">  1       21 0.37684815E-02 0.43389510E+03</pdfrwt>
<pdfrwt beam="2">  1       21 0.27010045E+00 0.43389510E+03</pdfrwt>
<totfact> 0.19020829E+04</totfact>
</mgrwt>
</event>
<event>
 6    0  0.1539497E-004  0.3964082E+03  0.7546771E-02  0.1045031E+00
         21   -1    0    0  502  501  0.00000000000E+00  0.00000000000E+00  0.15366672807E+03  0.15366672807E+03  0.00000000000E+00 0.  1.
         21   -1    0    0  501  502 -0.00000000000E+00 -0.00000000000E+00 -0.25564975135E+03  0.25564975135E+03  0.00000000000E+00 0.  1.
      99925    2    1    2    0    0 -0.24324419938E+02 -0.12852206170E+02 -0.42080540065E+02  0.26792103323E+03  0.26316164535E+03 0.  0.
         25    1    3    3    0    0 -0.46784972965E+02 -0.25988891250E+02 -0.11488768664E+02  0.13654214027E+03  0.12509000000E+03 0.  0.
         25    1    1    2    0    0  0.24324419938E+02  0.12852206170E+02 -0.59902483219E+02  0.14139544619E+03  0.12509000000E+03 0.  0.
         25    1    3    3    0    0  0.22460553027E+02  0.13136685080E+02 -0.30591771401E+02  0.13137889296E+03  0.12509000000E+03 0.  0.
<mgrwt>
<rscale>  2 0.39640818E+03</rscale>
<asrwt>0</asrwt>
<pdfrwt beam="1">  1       21 0.22598049E-01 0.39640818E+03</pdfrwt>
<pdfrwt beam="2">  1       21 0.37595551E-01 0.39640818E+03</pdfrwt>
<totfact> 0.11840051E+05</totfact>
</mgrwt>
</event>
<event>
 5    0  0.1539497E-004  0.4903432E+03  0.7546771E-02  0.1016331E+00
         21   -1    0    0  502  501  0.00000000000E+00  0.00000000000E+00  0.10492256119E+04  0.10492256119E+04  0.00000000000E+00 0. -1.
         21   -1    0    0  501  502 -0.00000000000E+00 -0.00000000000E+00 -0.57289032440E+02  0.57289032440E+02  0.00000000000E+00 0. -1.
         25    1    1    2    0    0 -0.29254328511E+02 -0.32341327631E+02  0.27238037156E+03  0.30288669848E+03  0.12509000000E+03 0.  0.
         25    1    1    2    0    0 -0.14958079204E+02 -0.10700187617E+03  0.32062918428E+03  0.36072666598E+03  0.12509000000E+03 0.  0.
         25    1    1    2    0    0  0.44212407715E+02  0.13934320380E+03  0.39892702364E+03  0.44290127989E+03  0.12509000000E+03 0.  0.
<mgrwt>
<rscale>  2 0.49034323E+03</rscale>
<asrwt>0</asrwt>
<pdfrwt beam="1">  1       21 0.15429787E+00 0.49034323E+03</pdfrwt>
<pdfrwt beam="2">  1       21 0.84248584E-02 0.49034323E+03</pdfrwt>
<totfact> 0.27015638E+04</totfact>
</mgrwt>
</event>
<event>
 6    0  0.1539497E-004  0.4597722E+03  0.7546771E-02  0.1024847E+00
         21   -1    0    0  502  501  0.00000000000E+00  0.00000000000E+00  0.31427238143E+03  0.31427238143E+03  0.00000000000E+00 0. -1.
         21   -1    0    0  501  502 -0.00000000000E+00 -0.00000000000E+00 -0.16815867773E+03  0.16815867773E+03  0.00000000000E+00 0. -1.
      99925    2    1    2    0    0  0.36843728372E+02  0.14743952480E+02  0.20770454654E+03  0.33746284030E+03  0.26299267190E+03 0.  0.
         25    1    1    2    0    0 -0.36843728372E+02 -0.14743952480E+02 -0.61590842848E+02  0.14496821885E+03  0.12509000000E+03 0.  0.
         25    1    3    3    0    0 -0.18177783418E+01  0.28839308366E+02  0.67249838010E+02  0.14493122106E+03  0.12509000000E+03 0.  0.
         25    1    3    3    0    0  0.38661506713E+02 -0.14095355886E+02  0.14045470854E+03  0.19253161924E+03  0.12509000000E+03 0.  0.
<mgrwt>
<rscale>  2 0.45977224E+03</rscale>
<asrwt>0</asrwt>
<pdfrwt beam="1">  1       21 0.46216527E-01 0.45977224E+03</pdfrwt>
<pdfrwt beam="2">  1       21 0.24729217E-01 0.45977224E+03</pdfrwt>
<totfact> 0.64062339E+04</totfact>
</mgrwt>
</event>
<event>
 6    0  0.1539497E-004  0.4454445E+03  0.7546771E-02  0.1029089E+00
         21   -1    0    0  502  501  0.00000000000E+00  0.00000000000E+00  0.36251525770E+03  0.36251525770E+03  0.00000000000E+00 0.  1.
         21   -1    0    0  501  502 -0.00000000000E+00 -0.00000000000E+00 -0.13683614966E+03  0.13683614966E+03  0.00000000000E+00 0.  1.
      99925    2    1    2    0    0 -0.48384393752E+02  0.56867745255E+02  0.22451457889E+03  0.35366731682E+03  0.26286647721E+03 0.  0.
         25    1    3    3    0    0 -0.49940322190E+02  0.20064813265E+02  0.75699494164E+02  0.15580293331E+03  0.12509000000E+03 0.  0.
         25    1    1    2    0    0  0.48384393752E+02 -0.56867745255E+02  0.11645291517E+01  0.14568409054E+03  0.12509000000E+03 0.  0.
         25    1    3    3    0    0  0.15559284381E+01  0.36802931990E+02  0.14881508473E+03  0.19786438350E+03  0.12509000000E+03 0.  0.
<mgrwt>
<rscale>  2 0.44544446E+03</rscale>
<asrwt>0</asrwt>
<pdfrwt beam="1">  1       21 0.53311067E-01 0.44544446E+03</pdfrwt>
<pdfrwt beam="2">  1       21 0.20122963E-01 0.44544446E+03</pdfrwt>
<totfact> 0.70514573E+04</totfact>
</mgrwt>
</event>
<event>
 6    0  0.1539497E-004  0.3986604E+03  0.7546771E-02  0.1044245E+00
         21   -1    0    0  502  501  0.00000000000E+00  0.00000000000E+00  0.37496916759E+03  0.37496916759E+03  0.00000000000E+00 0.  1.
         21   -1    0    0  501  502 -0.00000000000E+00 -0.00000000000E+00 -0.10596209561E+03  0.10596209561E+03  0.00000000000E+00 0.  1.
      99925    2    1    2    0    0 -0.25114216105E+02  0.30347371281E+01  0.13803373500E+03  0.29806120940E+03  0.26295862616E+03 0.  0.
         25    1    3    3    0    0 -0.36303925906E+02  0.32948068062E+02  0.59425184432E+02  0.14690953294E+03  0.12509000000E+03 0.  0.
         25    1    1    2    0    0  0.25114216105E+02 -0.30347371281E+01  0.13097333698E+03  0.18287005381E+03  0.12509000000E+03 0.  0.
         25    1    3    3    0    0  0.11189709801E+02 -0.29913330934E+02  0.78608550569E+02  0.15115167646E+03  0.12509000000E+03 0.  0.
<mgrwt>
<rscale>  2 0.39866035E+03</rscale>
<asrwt>0</asrwt>
<pdfrwt beam="1">  1       21 0.55142524E-01 0.39866035E+03</pdfrwt>
<pdfrwt beam="2">  1       21 0.15582661E-01 0.39866035E+03</pdfrwt>
<totfact> 0.10705025E+05</totfact>
</mgrwt>
</event>
<event>
 6    0  0.1621081E-004  0.4153896E+03  0.7546771E-02  0.1038577E+00
         21   -1    0    0  502  501  0.00000000000E+00  0.00000000000E+00  0.31818666386E+03  0.31818666386E+03  0.00000000000E+00 0. -1.
         21   -1    0    0  501  502 -0.00000000000E+00 -0.00000000000E+00 -0.13557176754E+03  0.13557176754E+03  0.00000000000E+00 0. -1.
      99925    2    1    2    0    0 -0.66928211050E+02  0.36425555287E+01  0.13187806505E+03  0.30304549966E+03  0.26448458779E+03 0.  0.
         25    1    3    3    0    0 -0.30339994238E+02  0.19405628737E+02  0.22353585667E+02  0.13207681314E+03  0.12509000000E+03 0.  0.
         25    1    1    2    0    0  0.66928211050E+02 -0.36425555287E+01  0.50736831265E+02  0.15071293173E+03  0.12509000000E+03 0.  0.
         25    1    3    3    0    0 -0.36588216812E+02 -0.15763073208E+02  0.10952447938E+03  0.17096868652E+03  0.12509000000E+03 0.  0.
<mgrwt>
<rscale>  2 0.41538959E+03</rscale>
<asrwt>0</asrwt>
<pdfrwt beam="1">  1       21 0.46792156E-01 0.41538959E+03</pdfrwt>
<pdfrwt beam="2">  1       21 0.19937025E-01 0.41538959E+03</pdfrwt>
<totfact> 0.95270598E+04</totfact>
</mgrwt>
</event>
<event>
 6    0  0.1539497E-004  0.4040556E+03  0.7546771E-02  0.1042384E+00
         21   -1    0    0  502  501  0.00000000000E+00  0.00000000000E+00  0.15022751045E+04  0.15022751045E+04  0.00000000000E+00 0.  1.
         21   -1    0    0  501  502 -0.00000000000E+00 -0.00000000000E+00 -0.27168949669E+02  0.27168949669E+02  0.00000000000E+00 0.  1.
      99925    2    1    2    0    0  0.11504251759E+02 -0.21900995739E+02  0.79480100506E+03  0.83729189869E+03  0.26217758209E+03 0.  0.
         25    1    1    2    0    0 -0.11504251759E+02  0.21900995739E+02  0.68030514977E+03  0.69215215548E+03  0.12509000000E+03 0.  0.
         25    1    3    3    0    0 -0.70568225216E+01 -0.47432191723E+02  0.38286293450E+03  0.40562439062E+03  0.12509000000E+03 0.  0.
         25    1    3    3    0    0  0.18561074281E+02  0.25531195983E+02  0.41193807056E+03  0.43166750807E+03  0.12509000000E+03 0.  0.
<mgrwt>
<rscale>  2 0.40405562E+03</rscale>
<asrwt>0</asrwt>
<pdfrwt beam="1">  1       21 0.22092275E+00 0.40405562E+03</pdfrwt>
<pdfrwt beam="2">  1       21 0.39954348E-02 0.40405562E+03</pdfrwt>
<totfact> 0.35002434E+04</totfact>
</mgrwt>
</event>
<event>
 6    0  0.1539497E-004  0.4039261E+03  0.7546771E-02  0.1042429E+00
         21   -1    0    0  502  501  0.00000000000E+00  0.00000000000E+00  0.71134246644E+03  0.71134246644E+03  0.00000000000E+00 0.  1.
         21   -1    0    0  501  502 -0.00000000000E+00 -0.00000000000E+00 -0.57340979602E+02  0.57340979602E+02  0.00000000000E+00 0.  1.
      99925    2    1    2    0    0  0.17408659419E+02 -0.49459613452E+02  0.44394660712E+03  0.51864369844E+03  0.26297030474E+03 0.  0.
         25    1    3    3    0    0  0.26095691464E+02 -0.19172230977E+02  0.29208419186E+03  0.31938885828E+03  0.12509000000E+03 0.  0.
         25    1    3    3    0    0 -0.86870320448E+01 -0.30287382475E+02  0.15186241526E+03  0.19925484017E+03  0.12509000000E+03 0.  0.
         25    1    1    2    0    0 -0.17408659419E+02  0.49459613452E+02  0.21005487971E+03  0.25003974760E+03  0.12509000000E+03 0.  0.
<mgrwt>
<rscale>  2 0.40392610E+03</rscale>
<asrwt>0</asrwt>
<pdfrwt beam="1">  1       21 0.10460918E+00 0.40392610E+03</pdfrwt>
<pdfrwt beam="2">  1       21 0.84324974E-02 0.40392610E+03</pdfrwt>
<totfact> 0.75250494E+04</totfact>
</mgrwt>
</event>
<event>
 6    0  0.1539497E-004  0.4310536E+03  0.7546771E-02  0.1033528E+00
         21   -1    0    0  502  501  0.00000000000E+00  0.00000000000E+00  0.30279706518E+03  0.30279706518E+03  0.00000000000E+00 0.  1.
         21   -1    0    0  501  502 -0.00000000000E+00 -0.00000000000E+00 -0.15340899155E+03  0.15340899155E+03  0.00000000000E+00 0.  1.
      99925    2    1    2    0    0  0.46998106554E+02  0.75032158406E+02  0.10443180453E+03  0.29649625414E+03  0.26299311798E+03 0.  0.
         25    1    1    2    0    0 -0.46998106554E+02 -0.75032158406E+02  0.44956269087E+02  0.15970980260E+03  0.12509000000E+03 0.  0.
         25    1    3    3    0    0  0.63298637899E+02  0.37273852619E+02  0.43814478610E+02  0.15153637941E+03  0.12509000000E+03 0.  0.
         25    1    3    3    0    0 -0.16300531345E+02  0.37758305787E+02  0.60617325924E+02  0.14495987472E+03  0.12509000000E+03 0.  0.
<mgrwt>
<rscale>  2 0.43105356E+03</rscale>
<asrwt>0</asrwt>
<pdfrwt beam="1">  1       21 0.44528980E-01 0.43105356E+03</pdfrwt>
<pdfrwt beam="2">  1       21 0.22560146E-01 0.43105356E+03</pdfrwt>
<totfact> 0.83194008E+04</totfact>
</mgrwt>
</event>
<event>
 6    0  0.1539497E-004  0.4778883E+03  0.7546771E-02  0.1019717E+00
         21   -1    0    0  502  501  0.00000000000E+00  0.00000000000E+00  0.53839320880E+02  0.53839320880E+02  0.00000000000E+00 0. -1.
         21   -1    0    0  501  502 -0.00000000000E+00 -0.00000000000E+00 -0.10604573557E+04  0.10604573557E+04  0.00000000000E+00 0. -1.
      99925    2    1    2    0    0  0.12375198818E+03 -0.19140949916E+02 -0.51360794727E+03  0.59047668358E+03  0.26303737341E+03 0.  0.
         25    1    3    3    0    0  0.66188399924E+02  0.29712970658E+02 -0.23642276767E+03  0.27714075500E+03  0.12509000000E+03 0.  0.
         25    1    3    3    0    0  0.57563588252E+02 -0.48853920574E+02 -0.27718517959E+03  0.31333592857E+03  0.12509000000E+03 0.  0.
         25    1    1    2    0    0 -0.12375198818E+03  0.19140949916E+02 -0.49301008754E+03  0.52381999299E+03  0.12509000000E+03 0.  0.
<mgrwt>
<rscale>  2 0.47788829E+03</rscale>
<asrwt>0</asrwt>
<pdfrwt beam="1">  1       21 0.79175469E-02 0.47788829E+03</pdfrwt>
<pdfrwt beam="2">  1       21 0.15594962E+00 0.47788829E+03</pdfrwt>
<totfact> 0.29391038E+04</totfact>
</mgrwt>
</event>
<event>
 6    0  0.1539497E-004  0.5050448E+03  0.7546771E-02  0.1012470E+00
         21   -1    0    0  502  501  0.00000000000E+00  0.00000000000E+00  0.94636672664E+02  0.94636672664E+02  0.00000000000E+00 0. -1.
         21   -1    0    0  501  502 -0.00000000000E+00 -0.00000000000E+00 -0.67381456347E+03  0.67381456347E+03  0.00000000000E+00 0. -1.
      99925    2    1    2    0    0 -0.15187230510E+03  0.31223690389E+02 -0.33419117386E+03  0.45268848425E+03  0.26306464451E+03 0.  0.
         25    1    3    3    0    0 -0.38403630662E+02  0.56474067788E+01 -0.11133108981E+03  0.17189779437E+03  0.12509000000E+03 0.  0.
         25    1    1    2    0    0  0.15187230510E+03 -0.31223690389E+02 -0.24498671694E+03  0.31576275188E+03  0.12509000000E+03 0.  0.
         25    1    3    3    0    0 -0.11346867443E+03  0.25576283610E+02 -0.22286008405E+03  0.28079068988E+03  0.12509000000E+03 0.  0.
<mgrwt>
<rscale>  2 0.50504482E+03</rscale>
<asrwt>0</asrwt>
<pdfrwt beam="1">  1       21 0.13917158E-01 0.50504482E+03</pdfrwt>
<pdfrwt beam="2">  1       21 0.99090377E-01 0.50504482E+03</pdfrwt>
<totfact> 0.33904676E+04</totfact>
</mgrwt>
</event>
<event>
 6    0  0.1539497E-004  0.4080701E+03  0.7546771E-02  0.1041021E+00
         21   -1    0    0  502  501  0.00000000000E+00  0.00000000000E+00  0.66530233352E+03  0.66530233352E+03  0.00000000000E+00 0.  1.
         21   -1    0    0  501  502 -0.00000000000E+00 -0.00000000000E+00 -0.62573495169E+02  0.62573495169E+02  0.00000000000E+00 0.  1.
      99925    2    1    2    0    0  0.31740774140E+02  0.69481842195E+01  0.48642488452E+03  0.55400843156E+03  0.26317374481E+03 0.  0.
         25    1    3    3    0    0  0.55374014851E+02  0.11859866467E+02  0.26863690965E+03  0.30169560036E+03  0.12509000000E+03 0.  0.
         25    1    3    3    0    0 -0.23633240711E+02 -0.49116822477E+01  0.21778797487E+03  0.25231283120E+03  0.12509000000E+03 0.  0.
         25    1    1    2    0    0 -0.31740774140E+02 -0.69481842195E+01  0.11630395383E+03  0.17386739713E+03  0.12509000000E+03 0.  0.
<mgrwt>
<rscale>  2 0.40807005E+03</rscale>
<asrwt>0</asrwt>
<pdfrwt beam="1">  1       21 0.97838575E-01 0.40807005E+03</pdfrwt>
<pdfrwt beam="2">  1       21 0.92019849E-02 0.40807005E+03</pdfrwt>
<totfact> 0.75728588E+04</totfact>
</mgrwt>
</event>
<event>
 6    0  0.1539497E-004  0.3910963E+03  0.7546771E-02  0.1046907E+00
         21   -1    0    0  502  501  0.00000000000E+00  0.00000000000E+00  0.33944000984E+03  0.33944000984E+03  0.00000000000E+00 0. -1.
         21   -1    0    0  501  502 -0.00000000000E+00 -0.00000000000E+00 -0.11265342848E+03  0.11265342848E+03  0.00000000000E+00 0. -1.
      99925    2    1    2    0    0 -0.43569831706E+01 -0.74249541697E+00  0.18054368258E+03  0.31865638054E+03  0.26253825043E+03 0.  0.
         25    1    3    3    0    0 -0.93749203531E+01 -0.39111941778E+02  0.97240214096E+02  0.16346498236E+03  0.12509000000E+03 0.  0.
         25    1    1    2    0    0  0.43569831706E+01  0.74249541697E+00  0.46242898774E+02  0.13343705778E+03  0.12509000000E+03 0.  0.
         25    1    3    3    0    0  0.50179371825E+01  0.38369446361E+02  0.83303468489E+02  0.15519139818E+03  0.12509000000E+03 0.  0.
<mgrwt>
<rscale>  2 0.39109631E+03</rscale>
<asrwt>0</asrwt>
<pdfrwt beam="1">  1       21 0.49917648E-01 0.39109631E+03</pdfrwt>
<pdfrwt beam="2">  1       21 0.16566681E-01 0.39109631E+03</pdfrwt>
<totfact> 0.11834698E+05</totfact>
</mgrwt>
</event>
<event>
 6    0  0.1539497E-004  0.4393477E+03  0.7546771E-02  0.1030947E+00
         21   -1    0    0  502  501  0.00000000000E+00  0.00000000000E+00  0.11655069472E+03  0.11655069472E+03  0.00000000000E+00 0. -1.
         21   -1    0    0  501  502 -0.00000000000E+00 -0.00000000000E+00 -0.41403953837E+03  0.41403953837E+03  0.00000000000E+00 0. -1.
      99925    2    1    2    0    0  0.78344601428E+02  0.19345086912E+02 -0.12334604456E+03  0.30149345980E+03  0.26300560951E+03 0.  0.
         25    1    1    2    0    0 -0.78344601428E+02 -0.19345086912E+02 -0.17414279908E+03  0.22909677329E+03  0.12509000000E+03 0.  0.
         25    1    3    3    0    0 -0.52163550832E+00  0.52488278055E+01 -0.41550842054E+02  0.13191589318E+03  0.12509000000E+03 0.  0.
         25    1    3    3    0    0  0.78866236936E+02  0.14096259107E+02 -0.81795202509E+02  0.16957756663E+03  0.12509000000E+03 0.  0.
<mgrwt>
<rscale>  2 0.43934768E+03</rscale>
<asrwt>0</asrwt>
<pdfrwt beam="1">  1       21 0.17139808E-01 0.43934768E+03</pdfrwt>
<pdfrwt beam="2">  1       21 0.60888169E-01 0.43934768E+03</pdfrwt>
<totfact> 0.71639601E+04</totfact>
</mgrwt>
</event>
<event>
 6    0  0.1539497E-004  0.4005390E+03  0.7546771E-02  0.1043593E+00
         21   -1    0    0  502  501  0.00000000000E+00  0.00000000000E+00  0.25301006200E+03  0.25301006200E+03  0.00000000000E+00 0.  1.
         21   -1    0    0  501  502 -0.00000000000E+00 -0.00000000000E+00 -0.15852280138E+03  0.15852280138E+03  0.00000000000E+00 0.  1.
      99925    2    1    2    0    0 -0.69955695928E+01 -0.39508112255E+02  0.86951973139E+02  0.27994974294E+03  0.26306155936E+03 0.  0.
         25    1    3    3    0    0  0.14552166924E+02 -0.56137366586E+02  0.39562110469E+02  0.14344280454E+03  0.12509000000E+03 0.  0.
         25    1    1    2    0    0  0.69955695928E+01  0.39508112255E+02  0.75352874784E+01  0.13158312044E+03  0.12509000000E+03 0.  0.
         25    1    3    3    0    0 -0.21547736517E+02  0.16629254332E+02  0.47389862670E+02  0.13650693840E+03  0.12509000000E+03 0.  0.
<mgrwt>
<rscale>  2 0.40053896E+03</rscale>
<asrwt>0</asrwt>
<pdfrwt beam="1">  1       21 0.37207362E-01 0.40053896E+03</pdfrwt>
<pdfrwt beam="2">  1       21 0.23312177E-01 0.40053896E+03</pdfrwt>
<totfact> 0.11380774E+05</totfact>
</mgrwt>
</event>
<event>
 6    0  0.1539497E-004  0.4183649E+03  0.7546771E-02  0.1037600E+00
         21   -1    0    0  502  501  0.00000000000E+00  0.00000000000E+00  0.97560375589E+03  0.97560375589E+03  0.00000000000E+00 0.  1.
         21   -1    0    0  501  502 -0.00000000000E+00 -0.00000000000E+00 -0.44851507254E+02  0.44851507254E+02  0.00000000000E+00 0.  1.
      99925    2    1    2    0    0 -0.12508766916E+02  0.63551338306E+02  0.52241688289E+03  0.58850558915E+03  0.26310489747E+03 0.  0.
         25    1    3    3    0    0 -0.36572838649E+02  0.43813421391E+02  0.21560871975E+03  0.25571823664E+03  0.12509000000E+03 0.  0.
         25    1    1    2    0    0  0.12508766916E+02 -0.63551338306E+02  0.40833536574E+03  0.43194967399E+03  0.12509000000E+03 0.  0.
         25    1    3    3    0    0  0.24064071733E+02  0.19737916914E+02  0.30680816315E+03  0.33278735250E+03  0.12509000000E+03 0.  0.
<mgrwt>
<rscale>  2 0.41836491E+03</rscale>
<asrwt>0</asrwt>
<pdfrwt beam="1">  1       21 0.14347113E+00 0.41836491E+03</pdfrwt>
<pdfrwt beam="2">  1       21 0.65958105E-02 0.41836491E+03</pdfrwt>
<totfact> 0.51646060E+04</totfact>
</mgrwt>
</event>
<event>
 6    0  0.1539497E-004  0.4156986E+03  0.7546771E-02  0.1038475E+00
         21   -1    0    0  502  501  0.00000000000E+00  0.00000000000E+00  0.99422730283E+02  0.99422730283E+02  0.00000000000E+00 0.  1.
         21   -1    0    0  501  502 -0.00000000000E+00 -0.00000000000E+00 -0.43452158068E+03  0.43452158068E+03  0.00000000000E+00 0.  1.
      99925    2    1    2    0    0 -0.46541782121E+01  0.55935417979E+01 -0.30920270226E+03  0.40599483784E+03  0.26300674551E+03 0.  0.
         25    1    3    3    0    0 -0.26250206493E+02  0.28160219289E+02 -0.12369966759E+03  0.18008661014E+03  0.12509000000E+03 0.  0.
         25    1    3    3    0    0  0.21596028281E+02 -0.22566677491E+02 -0.18550303467E+03  0.22590822770E+03  0.12509000000E+03 0.  0.
         25    1    1    2    0    0  0.46541782121E+01 -0.55935417979E+01 -0.25896148143E+02  0.12794947313E+03  0.12509000000E+03 0.  0.
<mgrwt>
<rscale>  2 0.41569855E+03</rscale>
<asrwt>0</asrwt>
<pdfrwt beam="1">  1       21 0.14620990E-01 0.41569855E+03</pdfrwt>
<pdfrwt beam="2">  1       21 0.63900233E-01 0.41569855E+03</pdfrwt>
<totfact> 0.87009337E+04</totfact>
</mgrwt>
</event>
<event>
 6    0  0.1539497E-004  0.4177504E+03  0.7546771E-02  0.1037801E+00
         21   -1    0    0  502  501  0.00000000000E+00  0.00000000000E+00  0.35231678414E+02  0.35231678414E+02  0.00000000000E+00 0.  1.
         21   -1    0    0  501  502 -0.00000000000E+00 -0.00000000000E+00 -0.12383412454E+04  0.12383412454E+04  0.00000000000E+00 0.  1.
      99925    2    1    2    0    0 -0.61598277248E+02  0.16918413464E+02 -0.89344496326E+03  0.93354313780E+03  0.26301769387E+03 0.  0.
         25    1    3    3    0    0 -0.46415926146E+02 -0.28376163404E+02 -0.47472679976E+03  0.49393591423E+03  0.12509000000E+03 0.  0.
         25    1    1    2    0    0  0.61598277248E+02 -0.16918413464E+02 -0.30966460372E+03  0.34002978601E+03  0.12509000000E+03 0.  0.
         25    1    3    3    0    0 -0.15182351103E+02  0.45294576868E+02 -0.41871816350E+03  0.43960722358E+03  0.12509000000E+03 0.  0.
<mgrwt>
<rscale>  2 0.41775036E+03</rscale>
<asrwt>0</asrwt>
<pdfrwt beam="1">  1       21 0.51811284E-02 0.41775036E+03</pdfrwt>
<pdfrwt beam="2">  1       21 0.18210903E+00 0.41775036E+03</pdfrwt>
<totfact> 0.40387180E+04</totfact>
</mgrwt>
</event>
<event>
 6    0  0.1539497E-004  0.5205763E+03  0.7546771E-02  0.1008543E+00
         21   -1    0    0  502  501  0.00000000000E+00  0.00000000000E+00  0.36136286167E+02  0.36136286167E+02  0.00000000000E+00 0. -1.
         21   -1    0    0  501  502 -0.00000000000E+00 -0.00000000000E+00 -0.18748446900E+04  0.18748446900E+04  0.00000000000E+00 0. -1.
      99925    2    1    2    0    0 -0.12845796653E+03  0.74657238731E+01 -0.14934248866E+04  0.15218468070E+04  0.26294985457E+03 0.  0.
         25    1    1    2    0    0  0.12845796653E+03 -0.74657238731E+01 -0.34528351721E+03  0.38913416909E+03  0.12509000000E+03 0.  0.
         25    1    3    3    0    0 -0.52703071686E+02  0.16961365748E+02 -0.91382174364E+03  0.92400378189E+03  0.12509000000E+03 0.  0.
         25    1    3    3    0    0 -0.75754894844E+02 -0.94956418750E+01 -0.57960314294E+03  0.59784302514E+03  0.12509000000E+03 0.  0.
<mgrwt>
<rscale>  2 0.52057631E+03</rscale>
<asrwt>0</asrwt>
<pdfrwt beam="1">  1       21 0.53141601E-02 0.52057631E+03</pdfrwt>
<pdfrwt beam="2">  1       21 0.27571243E+00 0.52057631E+03</pdfrwt>
<totfact> 0.94314713E+03</totfact>
</mgrwt>
</event>
<event>
 6    0  0.1539497E-004  0.4360431E+03  0.7546771E-02  0.1031968E+00
         21   -1    0    0  502  501  0.00000000000E+00  0.00000000000E+00  0.23682020566E+03  0.23682020566E+03  0.00000000000E+00 0. -1.
         21   -1    0    0  501  502 -0.00000000000E+00 -0.00000000000E+00 -0.20071516442E+03  0.20071516442E+03  0.00000000000E+00 0. -1.
      99925    2    1    2    0    0  0.45714331333E+02 -0.40454806735E+02 -0.48923900434E+02  0.27442859371E+03  0.26304203758E+03 0.  0.
         25    1    3    3    0    0  0.34576630575E+02 -0.48043837760E+02  0.27522587904E+01  0.13841544985E+03  0.12509000000E+03 0.  0.
         25    1    1    2    0    0 -0.45714331333E+02  0.40454806735E+02  0.85028941673E+02  0.16310677637E+03  0.12509000000E+03 0.  0.
         25    1    3    3    0    0  0.11137700758E+02  0.75890310247E+01 -0.51676159224E+02  0.13601314386E+03  0.12509000000E+03 0.  0.
<mgrwt>
<rscale>  2 0.43604315E+03</rscale>
<asrwt>0</asrwt>
<pdfrwt beam="1">  1       21 0.34826501E-01 0.43604315E+03</pdfrwt>
<pdfrwt beam="2">  1       21 0.29516936E-01 0.43604315E+03</pdfrwt>
<totfact> 0.81490046E+04</totfact>
</mgrwt>
</event>
<event>
 6    0  0.1616333E-004  0.4156024E+03  0.7546771E-02  0.1038507E+00
         21   -1    0    0  502  501  0.00000000000E+00  0.00000000000E+00  0.31936156205E+03  0.31936156205E+03  0.00000000000E+00 0.  1.
         21   -1    0    0  501  502 -0.00000000000E+00 -0.00000000000E+00 -0.13521143270E+03  0.13521143270E+03  0.00000000000E+00 0.  1.
      99925    2    1    2    0    0 -0.77635200305E+01 -0.29332532098E+02  0.51459585410E+02  0.26970829224E+03  0.26300913347E+03 0.  0.
         25    1    1    2    0    0  0.77635200305E+01  0.29332532098E+02  0.13269054395E+03  0.18486470251E+03  0.12509000000E+03 0.  0.
         25    1    3    3    0    0 -0.36640051525E+02 -0.27754098791E+02  0.56375388653E+01  0.13338693084E+03  0.12509000000E+03 0.  0.
         25    1    3    3    0    0  0.28876531495E+02 -0.15784333073E+01  0.45822046544E+02  0.13632136139E+03  0.12509000000E+03 0.  0.
<mgrwt>
<rscale>  2 0.41560238E+03</rscale>
<asrwt>0</asrwt>
<pdfrwt beam="1">  1       21 0.46964936E-01 0.41560238E+03</pdfrwt>
<pdfrwt beam="2">  1       21 0.19884034E-01 0.41560238E+03</pdfrwt>
<totfact> 0.95009922E+04</totfact>
</mgrwt>
</event>
<event>
 6    0  0.1539497E-004  0.4178590E+03  0.7546771E-02  0.1037765E+00
         21   -1    0    0  502  501  0.00000000000E+00  0.00000000000E+00  0.10317099986E+04  0.10317099986E+04  0.00000000000E+00 0. -1.
         21   -1    0    0  501  502 -0.00000000000E+00 -0.00000000000E+00 -0.42309882644E+02  0.42309882644E+02  0.00000000000E+00 0. -1.
      99925    2    1    2    0    0  0.19117103154E+02 -0.70231948267E+02  0.62521068856E+03  0.68212775665E+03  0.26289138653E+03 0.  0.
         25    1    3    3    0    0 -0.20292976843E+02 -0.42400578769E+02  0.37762048490E+03  0.40056753826E+03  0.12509000000E+03 0.  0.
         25    1    1    2    0    0 -0.19117103154E+02  0.70231948267E+02  0.36418942738E+03  0.39189212458E+03  0.12509000000E+03 0.  0.
         25    1    3    3    0    0  0.39410079997E+02 -0.27831369498E+02  0.24759020366E+03  0.28156021839E+03  0.12509000000E+03 0.  0.
<mgrwt>
<rscale>  2 0.41785897E+03</rscale>
<asrwt>0</asrwt>
<pdfrwt beam="1">  1       21 0.15172204E+00 0.41785897E+03</pdfrwt>
<pdfrwt beam="2">  1       21 0.62220423E-02 0.41785897E+03</pdfrwt>
<totfact> 0.49192076E+04</totfact>
</mgrwt>
</event>
<event>
 6    0  0.1539497E-004  0.4120761E+03  0.7546771E-02  0.1039677E+00
         21   -1    0    0  502  501  0.00000000000E+00  0.00000000000E+00  0.15815891583E+03  0.15815891583E+03  0.00000000000E+00 0. -1.
         21   -1    0    0  501  502 -0.00000000000E+00 -0.00000000000E+00 -0.26841154101E+03  0.26841154101E+03  0.00000000000E+00 0. -1.
      99925    2    1    2    0    0  0.60544694221E+02 -0.65545070632E+01 -0.49299640194E+02  0.27467774456E+03  0.26326562114E+03 0.  0.
         25    1    3    3    0    0 -0.11534411706E+02 -0.69475296363E+01 -0.25112694418E+02  0.12829445172E+03  0.12509000000E+03 0.  0.
         25    1    1    2    0    0 -0.60544694221E+02  0.65545070632E+01 -0.60952984989E+02  0.15189271227E+03  0.12509000000E+03 0.  0.
         25    1    3    3    0    0  0.72079105926E+02  0.39302257310E+00 -0.24186945776E+02  0.14638329284E+03  0.12509000000E+03 0.  0.
<mgrwt>
<rscale>  2 0.41207610E+03</rscale>
<asrwt>0</asrwt>
<pdfrwt beam="1">  1       21 0.23258664E-01 0.41207610E+03</pdfrwt>
<pdfrwt beam="2">  1       21 0.39472285E-01 0.41207610E+03</pdfrwt>
<totfact> 0.10108129E+05</totfact>
</mgrwt>
</event>
<event>
 6    0  0.1539497E-004  0.3942992E+03  0.7546771E-02  0.1045772E+00
         21   -1    0    0  502  501  0.00000000000E+00  0.00000000000E+00  0.60167421794E+03  0.60167421794E+03  0.00000000000E+00 0. -1.
         21   -1    0    0  501  502 -0.00000000000E+00 -0.00000000000E+00 -0.64599687897E+02  0.64599687897E+02  0.00000000000E+00 0. -1.
      99925    2    1    2    0    0  0.29807644949E+02 -0.13264036109E+02  0.36687979763E+03  0.45254935088E+03  0.26293668196E+03 0.  0.
         25    1    3    3    0    0 -0.15196272872E+02 -0.27381236399E+02  0.15034100098E+03  0.19806711865E+03  0.12509000000E+03 0.  0.
         25    1    1    2    0    0 -0.29807644949E+02  0.13264036109E+02  0.17019473241E+03  0.21372455495E+03  0.12509000000E+03 0.  0.
         25    1    3    3    0    0  0.45003917821E+02  0.14117200289E+02  0.21653879666E+03  0.25448223223E+03  0.12509000000E+03 0.  0.
<mgrwt>
<rscale>  2 0.39429921E+03</rscale>
<asrwt>0</asrwt>
<pdfrwt beam="1">  1       21 0.88481499E-01 0.39429921E+03</pdfrwt>
<pdfrwt beam="2">  1       21 0.94999544E-02 0.39429921E+03</pdfrwt>
<totfact> 0.91150621E+04</totfact>
</mgrwt>
</event>
<event>
 6    0  0.1539497E-004  0.4250925E+03  0.7546771E-02  0.1035422E+00
         21   -1    0    0  502  501  0.00000000000E+00  0.00000000000E+00  0.11447279347E+03  0.11447279347E+03  0.00000000000E+00 0. -1.
         21   -1    0    0  501  502 -0.00000000000E+00 -0.00000000000E+00 -0.39464322898E+03  0.39464322898E+03  0.00000000000E+00 0. -1.
      99925    2    1    2    0    0  0.22715549645E+01  0.58074125145E+02 -0.25097485775E+03  0.36812788879E+03  0.26296767731E+03 0.  0.
         25    1    3    3    0    0  0.34192812327E+02  0.52305336510E+02 -0.12241030747E+03  0.18584076011E+03  0.12509000000E+03 0.  0.
         25    1    1    2    0    0 -0.22715549645E+01 -0.58074125145E+02 -0.29195577762E+02  0.14098813366E+03  0.12509000000E+03 0.  0.
         25    1    3    3    0    0 -0.31921257363E+02  0.57687886350E+01 -0.12856455028E+03  0.18228712868E+03  0.12509000000E+03 0.  0.
<mgrwt>
<rscale>  2 0.42509252E+03</rscale>
<asrwt>0</asrwt>
<pdfrwt beam="1">  1       21 0.16834235E-01 0.42509252E+03</pdfrwt>
<pdfrwt beam="2">  1       21 0.58035768E-01 0.42509252E+03</pdfrwt>
<totfact> 0.82531708E+04</totfact>
</mgrwt>
</event>
<event>
 6    0  0.1539497E-004  0.4383762E+03  0.7546771E-02  0.1031246E+00
         21   -1    0    0  502  501  0.00000000000E+00  0.00000000000E+00  0.36416255122E+02  0.36416255122E+02  0.00000000000E+00 0. -1.
         21   -1    0    0  501  502 -0.00000000000E+00 -0.00000000000E+00 -0.13192852338E+04  0.13192852338E+04  0.00000000000E+00 0. -1.
      99925    2    1    2    0    0  0.34214835337E+02  0.83880696988E+02 -0.92473415537E+03  0.96568266111E+03  0.26306485432E+03 0.  0.
         25    1    1    2    0    0 -0.34214835337E+02 -0.83880696988E+02 -0.35813482335E+03  0.39001882785E+03  0.12509000000E+03 0.  0.
         25    1    3    3    0    0 -0.14891837057E+02  0.46366249110E+02 -0.53990190476E+03  0.55633907892E+03  0.12509000000E+03 0.  0.
         25    1    3    3    0    0  0.49106672394E+02  0.37514447877E+02 -0.38483225061E+03  0.40934358219E+03  0.12509000000E+03 0.  0.
<mgrwt>
<rscale>  2 0.43837622E+03</rscale>
<asrwt>0</asrwt>
<pdfrwt beam="1">  1       21 0.53553315E-02 0.43837622E+03</pdfrwt>
<pdfrwt beam="2">  1       21 0.19401254E+00 0.43837622E+03</pdfrwt>
<totfact> 0.31402813E+04</totfact>
</mgrwt>
</event>
<event>
 6    0  0.1539497E-004  0.4119129E+03  0.7546771E-02  0.1039731E+00
         21   -1    0    0  502  501  0.00000000000E+00  0.00000000000E+00  0.18688303513E+03  0.18688303513E+03  0.00000000000E+00 0.  1.
         21   -1    0    0  501  502 -0.00000000000E+00 -0.00000000000E+00 -0.22697650059E+03  0.22697650059E+03  0.00000000000E+00 0.  1.
      99925    2    1    2    0    0 -0.37489572222E+02 -0.41575141179E+02 -0.58945432978E+02  0.27552347691E+03  0.26325778596E+03 0.  0.
         25    1    3    3    0    0 -0.45977034834E+02 -0.28182269192E+02  0.27218901788E+00  0.13621934597E+03  0.12509000000E+03 0.  0.
         25    1    1    2    0    0  0.37489572222E+02  0.41575141179E+02  0.18851967523E+02  0.13833605882E+03  0.12509000000E+03 0.  0.
         25    1    3    3    0    0  0.84874626122E+01 -0.13392871986E+02 -0.59217621996E+02  0.13930413094E+03  0.12509000000E+03 0.  0.
<mgrwt>
<rscale>  2 0.41191289E+03</rscale>
<asrwt>0</asrwt>
<pdfrwt beam="1">  1       21 0.27482799E-01 0.41191289E+03</pdfrwt>
<pdfrwt beam="2">  1       21 0.33378897E-01 0.41191289E+03</pdfrwt>
<totfact> 0.10268645E+05</totfact>
</mgrwt>
</event>
<event>
 6    0  0.1539497E-004  0.6931513E+03  0.7546771E-02  0.9729017E-01
         21   -1    0    0  502  501  0.00000000000E+00  0.00000000000E+00  0.20207539330E+03  0.20207539330E+03  0.00000000000E+00 0.  1.
         21   -1    0    0  501  502 -0.00000000000E+00 -0.00000000000E+00 -0.59440530759E+03  0.59440530759E+03  0.00000000000E+00 0.  1.
      99925    2    1    2    0    0 -0.98362852007E+02 -0.24972912193E+02 -0.51960465947E+03  0.59118757908E+03  0.26308716144E+03 0.  0.
         25    1    3    3    0    0 -0.69135470955E+02  0.92125083511E+01 -0.32885116236E+03  0.35868534782E+03  0.12509000000E+03 0.  0.
         25    1    1    2    0    0  0.98362852007E+02  0.24972912193E+02  0.12727474519E+03  0.20529312181E+03  0.12509000000E+03 0.  0.
         25    1    3    3    0    0 -0.29227381052E+02 -0.34185420544E+02 -0.19075349711E+03  0.23250223126E+03  0.12509000000E+03 0.  0.
<mgrwt>
<rscale>  2 0.69315131E+03</rscale>
<asrwt>0</asrwt>
<pdfrwt beam="1">  1       21 0.29716969E-01 0.69315131E+03</pdfrwt>
<pdfrwt beam="2">  1       21 0.87412546E-01 0.69315131E+03</pdfrwt>
<totfact> 0.10287856E+04</totfact>
</mgrwt>
</event>
<event>
 6    0  0.1539497E-004  0.3903387E+03  0.7546771E-02  0.1047177E+00
         21   -1    0    0  502  501  0.00000000000E+00  0.00000000000E+00  0.69977420604E+02  0.69977420604E+02  0.00000000000E+00 0. -1.
         21   -1    0    0  501  502 -0.00000000000E+00 -0.00000000000E+00 -0.54433391424E+03  0.54433391424E+03  0.00000000000E+00 0. -1.
      99925    2    1    2    0    0  0.14622036293E+02  0.73079076913E+01 -0.30305095771E+03  0.40156664231E+03  0.26296135798E+03 0.  0.
         25    1    1    2    0    0 -0.14622036293E+02 -0.73079076913E+01 -0.17130553593E+03  0.21274469253E+03  0.12509000000E+03 0.  0.
         25    1    3    3    0    0  0.25869762743E+02 -0.18228456887E+02 -0.10845828596E+03  0.16855927491E+03  0.12509000000E+03 0.  0.
         25    1    3    3    0    0 -0.11247726450E+02  0.25536364578E+02 -0.19459267175E+03  0.23300736740E+03  0.12509000000E+03 0.  0.
<mgrwt>
<rscale>  2 0.39033874E+03</rscale>
<asrwt>0</asrwt>
<pdfrwt beam="1">  1       21 0.10290798E-01 0.39033874E+03</pdfrwt>
<pdfrwt beam="2">  1       21 0.80049100E-01 0.39033874E+03</pdfrwt>
<totfact> 0.99792563E+04</totfact>
</mgrwt>
</event>
<event>
 6    0  0.1539497E-004  0.4647838E+03  0.7546771E-02  0.1023403E+00
         21   -1    0    0  502  501  0.00000000000E+00  0.00000000000E+00  0.84064869317E+02  0.84064869317E+02  0.00000000000E+00 0.  1.
         21   -1    0    0  501  502 -0.00000000000E+00 -0.00000000000E+00 -0.64243236594E+03  0.64243236594E+03  0.00000000000E+00 0.  1.
      99925    2    1    2    0    0  0.24154415943E+02  0.15390773401E+02 -0.53389362403E+03  0.59585730929E+03  0.26302703197E+03 0.  0.
         25    1    3    3    0    0  0.73530744680E+01  0.18438455326E+02 -0.17980744948E+03  0.21993697126E+03  0.12509000000E+03 0.  0.
         25    1    1    2    0    0 -0.24154415943E+02 -0.15390773401E+02 -0.24473872592E+02  0.13063992596E+03  0.12509000000E+03 0.  0.
         25    1    3    3    0    0  0.16801341474E+02 -0.30476819251E+01 -0.35408617455E+03  0.37592033803E+03  0.12509000000E+03 0.  0.
<mgrwt>
<rscale>  2 0.46478379E+03</rscale>
<asrwt>0</asrwt>
<pdfrwt beam="1">  1       21 0.12362480E-01 0.46478379E+03</pdfrwt>
<pdfrwt beam="2">  1       21 0.94475351E-01 0.46478379E+03</pdfrwt>
<totfact> 0.47709555E+04</totfact>
</mgrwt>
</event>
<event>
 6    0  0.1539497E-004  0.4185958E+03  0.7546771E-02  0.1037524E+00
         21   -1    0    0  502  501  0.00000000000E+00  0.00000000000E+00  0.41353331007E+03  0.41353331007E+03  0.00000000000E+00 0.  1.
         21   -1    0    0  501  502 -0.00000000000E+00 -0.00000000000E+00 -0.10593004920E+03  0.10593004920E+03  0.00000000000E+00 0.  1.
      99925    2    1    2    0    0 -0.60078169558E+02 -0.42960110486E+02  0.20734628761E+03  0.34295861050E+03  0.26300792379E+03 0.  0.
         25    1    3    3    0    0 -0.94428878838E+01 -0.27322448511E+02  0.14443050362E+03  0.19324430859E+03  0.12509000000E+03 0.  0.
         25    1    3    3    0    0 -0.50635281674E+02 -0.15637661975E+02  0.62915783987E+02  0.14971430191E+03  0.12509000000E+03 0.  0.
         25    1    1    2    0    0  0.60078169558E+02  0.42960110486E+02  0.10025697327E+03  0.17650474877E+03  0.12509000000E+03 0.  0.
<mgrwt>
<rscale>  2 0.41859577E+03</rscale>
<asrwt>0</asrwt>
<pdfrwt beam="1">  1       21 0.60813722E-01 0.41859577E+03</pdfrwt>
<pdfrwt beam="2">  1       21 0.15577949E-01 0.41859577E+03</pdfrwt>
<totfact> 0.86224884E+04</totfact>
</mgrwt>
</event>
<event>
 6    0  0.1539497E-004  0.4236522E+03  0.7546771E-02  0.1035884E+00
         21   -1    0    0  502  501  0.00000000000E+00  0.00000000000E+00  0.21996892053E+02  0.21996892053E+02  0.00000000000E+00 0.  1.
         21   -1    0    0  501  502 -0.00000000000E+00 -0.00000000000E+00 -0.20398467513E+04  0.20398467513E+04  0.00000000000E+00 0.  1.
      99925    2    1    2    0    0 -0.15516467787E+02  0.61983864234E+02 -0.15490125857E+04  0.15724167771E+04  0.26262477071E+03 0.  0.
         25    1    3    3    0    0  0.15039674652E+02  0.62689158559E+02 -0.74862752018E+03  0.76173932187E+03  0.12509000000E+03 0.  0.
         25    1    3    3    0    0 -0.30556142439E+02 -0.70529432506E+00 -0.80038506549E+03  0.81067745525E+03  0.12509000000E+03 0.  0.
         25    1    1    2    0    0  0.15516467787E+02 -0.61983864234E+02 -0.46883727354E+03  0.48942686620E+03  0.12509000000E+03 0.  0.
<mgrwt>
<rscale>  2 0.42365216E+03</rscale>
<asrwt>0</asrwt>
<pdfrwt beam="1">  1       21 0.32348362E-02 0.42365216E+03</pdfrwt>
<pdfrwt beam="2">  1       21 0.29997755E+00 0.42365216E+03</pdfrwt>
<totfact> 0.16360774E+04</totfact>
</mgrwt>
</event>
<event>
 6    0  0.1539497E-004  0.4672003E+03  0.7546771E-02  0.1022713E+00
         21   -1    0    0  502  501  0.00000000000E+00  0.00000000000E+00  0.90964135428E+03  0.90964135428E+03  0.00000000000E+00 0.  1.
         21   -1    0    0  501  502 -0.00000000000E+00 -0.00000000000E+00 -0.59989612622E+02  0.59989612622E+02  0.00000000000E+00 0.  1.
      99925    2    1    2    0    0  0.11728400752E+02  0.10884404022E+03  0.65125113142E+03  0.71079725442E+03  0.26290705628E+03 0.  0.
         25    1    3    3    0    0  0.20954803900E+00  0.37523487851E+02  0.21828865716E+03  0.25437276190E+03  0.12509000000E+03 0.  0.
         25    1    1    2    0    0 -0.11728400752E+02 -0.10884404022E+03  0.19840061025E+03  0.25883371249E+03  0.12509000000E+03 0.  0.
         25    1    3    3    0    0  0.11518852713E+02  0.71320552364E+02  0.43296247426E+03  0.45642449252E+03  0.12509000000E+03 0.  0.
<mgrwt>
<rscale>  2 0.46720031E+03</rscale>
<asrwt>0</asrwt>
<pdfrwt beam="1">  1       21 0.13377078E+00 0.46720031E+03</pdfrwt>
<pdfrwt beam="2">  1       21 0.88220024E-02 0.46720031E+03</pdfrwt>
<totfact> 0.36725723E+04</totfact>
</mgrwt>
</event>
<event>
 6    0  0.1539497E-004  0.4056471E+03  0.7546771E-02  0.1041842E+00
         21   -1    0    0  502  501  0.00000000000E+00  0.00000000000E+00  0.81206933720E+02  0.81206933720E+02  0.00000000000E+00 0.  1.
         21   -1    0    0  501  502 -0.00000000000E+00 -0.00000000000E+00 -0.50657477512E+03  0.50657477512E+03  0.00000000000E+00 0.  1.
      99925    2    1    2    0    0  0.50880391046E+02 -0.15928275038E+02 -0.30434598254E+03  0.40574785880E+03  0.26298730710E+03 0.  0.
         25    1    3    3    0    0  0.33933087897E+02  0.98672107933E+01 -0.99268459508E+02  0.16355595818E+03  0.12509000000E+03 0.  0.
         25    1    3    3    0    0  0.16947303149E+02 -0.25795485831E+02 -0.20507752303E+03  0.24219190062E+03  0.12509000000E+03 0.  0.
         25    1    1    2    0    0 -0.50880391046E+02  0.15928275038E+02 -0.12102185887E+03  0.18203385004E+03  0.12509000000E+03 0.  0.
<mgrwt>
<rscale>  2 0.40564706E+03</rscale>
<asrwt>0</asrwt>
<pdfrwt beam="1">  1       21 0.11942196E-01 0.40564706E+03</pdfrwt>
<pdfrwt beam="2">  1       21 0.74496291E-01 0.40564706E+03</pdfrwt>
<totfact> 0.89584281E+04</totfact>
</mgrwt>
</event>
<event>
 6    0  0.1539497E-004  0.4028226E+03  0.7546771E-02  0.1042807E+00
         21   -1    0    0  502  501  0.00000000000E+00  0.00000000000E+00  0.26961352583E+03  0.26961352583E+03  0.00000000000E+00 0. -1.
         21   -1    0    0  501  502 -0.00000000000E+00 -0.00000000000E+00 -0.15046169643E+03  0.15046169643E+03  0.00000000000E+00 0. -1.
      99925    2    1    2    0    0 -0.17118189178E+02 -0.37966231055E+02  0.10933668912E+03  0.28786965438E+03  0.26302083420E+03 0.  0.
         25    1    3    3    0    0 -0.91437733636E+01 -0.33488377331E+02  0.14494854672E+02  0.13062422792E+03  0.12509000000E+03 0.  0.
         25    1    1    2    0    0  0.17118189178E+02  0.37966231055E+02  0.98151402812E+01  0.13220556789E+03  0.12509000000E+03 0.  0.
         25    1    3    3    0    0 -0.79744158147E+01 -0.44778537240E+01  0.94841834444E+02  0.15724542646E+03  0.12509000000E+03 0.  0.
<mgrwt>
<rscale>  2 0.40282258E+03</rscale>
<asrwt>0</asrwt>
<pdfrwt beam="1">  1       21 0.39649048E-01 0.40282258E+03</pdfrwt>
<pdfrwt beam="2">  1       21 0.22126720E-01 0.40282258E+03</pdfrwt>
<totfact> 0.11044700E+05</totfact>
</mgrwt>
</event>
<event>
 6    0  0.1539497E-004  0.4048434E+03  0.7546771E-02  0.1042115E+00
         21   -1    0    0  502  501  0.00000000000E+00  0.00000000000E+00  0.31620774005E+03  0.31620774005E+03  0.00000000000E+00 0. -1.
         21   -1    0    0  501  502 -0.00000000000E+00 -0.00000000000E+00 -0.12958109139E+03  0.12958109139E+03  0.00000000000E+00 0. -1.
      99925    2    1    2    0    0  0.10768506370E+02  0.13873081905E+02  0.18002991409E+03  0.31929990648E+03  0.26312209557E+03 0.  0.
         25    1    1    2    0    0 -0.10768506370E+02 -0.13873081905E+02  0.65967345718E+01  0.12648892496E+03  0.12509000000E+03 0.  0.
         25    1    3    3    0    0  0.42518311064E+02  0.12618409496E+02  0.71999878914E+02  0.15099179348E+03  0.12509000000E+03 0.  0.
         25    1    3    3    0    0 -0.31749804694E+02  0.12546724092E+01  0.10803003518E+03  0.16830811300E+03  0.12509000000E+03 0.  0.
<mgrwt>
<rscale>  2 0.40484340E+03</rscale>
<asrwt>0</asrwt>
<pdfrwt beam="1">  1       21 0.46501138E-01 0.40484340E+03</pdfrwt>
<pdfrwt beam="2">  1       21 0.19056043E-01 0.40484340E+03</pdfrwt>
<totfact> 0.10538542E+05</totfact>
</mgrwt>
</event>
<event>
 6    0  0.1539497E-004  0.4091945E+03  0.7546771E-02  0.1040642E+00
         21   -1    0    0  502  501  0.00000000000E+00  0.00000000000E+00  0.12410647801E+04  0.12410647801E+04  0.00000000000E+00 0.  1.
         21   -1    0    0  501  502 -0.00000000000E+00 -0.00000000000E+00 -0.33729130816E+02  0.33729130816E+02  0.00000000000E+00 0.  1.
      99925    2    1    2    0    0 -0.23305758556E+02 -0.21863752793E+02  0.63506750093E+03  0.68814280183E+03  0.26307527993E+03 0.  0.
         25    1    1    2    0    0  0.23305758556E+02  0.21863752793E+02  0.57226814835E+03  0.58665110908E+03  0.12509000000E+03 0.  0.
         25    1    3    3    0    0 -0.23266974595E+02  0.11507304712E+02  0.23273879317E+03  0.26549693805E+03  0.12509000000E+03 0.  0.
         25    1    3    3    0    0 -0.38783961090E-01 -0.33371057505E+02  0.40232870776E+03  0.42264586378E+03  0.12509000000E+03 0.  0.
<mgrwt>
<rscale>  2 0.40919451E+03</rscale>
<asrwt>0</asrwt>
<pdfrwt beam="1">  1       21 0.18250950E+00 0.40919451E+03</pdfrwt>
<pdfrwt beam="2">  1       21 0.49601671E-02 0.40919451E+03</pdfrwt>
<totfact> 0.43370836E+04</totfact>
</mgrwt>
</event>
<event>
 6    0  0.1539497E-004  0.4806601E+03  0.7546771E-02  0.1018954E+00
         21   -1    0    0  502  501  0.00000000000E+00  0.00000000000E+00  0.11445367414E+03  0.11445367414E+03  0.00000000000E+00 0.  1.
         21   -1    0    0  501  502 -0.00000000000E+00 -0.00000000000E+00 -0.50464548905E+03  0.50464548905E+03  0.00000000000E+00 0.  1.
      99925    2    1    2    0    0  0.87989541906E+02 -0.10221457426E+03 -0.26125334331E+03  0.39446030584E+03  0.26297460869E+03 0.  0.
         25    1    3    3    0    0  0.63142370582E+02 -0.27040507763E+02 -0.92933744831E+02  0.17030072534E+03  0.12509000000E+03 0.  0.
         25    1    3    3    0    0  0.24847171325E+02 -0.75174066502E+02 -0.16831959848E+03  0.22415958050E+03  0.12509000000E+03 0.  0.
         25    1    1    2    0    0 -0.87989541906E+02  0.10221457426E+03 -0.12893847160E+03  0.22463885736E+03  0.12509000000E+03 0.  0.
<mgrwt>
<rscale>  2 0.48066009E+03</rscale>
<asrwt>0</asrwt>
<pdfrwt beam="1">  1       21 0.16831423E-01 0.48066009E+03</pdfrwt>
<pdfrwt beam="2">  1       21 0.74212571E-01 0.48066009E+03</pdfrwt>
<totfact> 0.47199706E+04</totfact>
</mgrwt>
</event>
<event>
 6    0  0.1539497E-004  0.3979124E+03  0.7546771E-02  0.1044505E+00
         21   -1    0    0  502  501  0.00000000000E+00  0.00000000000E+00  0.40516369898E+03  0.40516369898E+03  0.00000000000E+00 0. -1.
         21   -1    0    0  501  502 -0.00000000000E+00 -0.00000000000E+00 -0.97697726987E+02  0.97697726987E+02  0.00000000000E+00 0. -1.
      99925    2    1    2    0    0 -0.30375274067E+02 -0.26016432757E+02  0.21826444094E+03  0.34410395909E+03  0.26299934683E+03 0.  0.
         25    1    3    3    0    0 -0.63282188216E+01  0.13997090269E+02  0.68418344487E+02  0.14340342692E+03  0.12509000000E+03 0.  0.
         25    1    1    2    0    0  0.30375274067E+02  0.26016432757E+02  0.89201531057E+02  0.15875746688E+03  0.12509000000E+03 0.  0.
         25    1    3    3    0    0 -0.24047055245E+02 -0.40013523026E+02  0.14984609645E+03  0.20070053217E+03  0.12509000000E+03 0.  0.
<mgrwt>
<rscale>  2 0.39791241E+03</rscale>
<asrwt>0</asrwt>
<pdfrwt beam="1">  1       21 0.59582896E-01 0.39791241E+03</pdfrwt>
<pdfrwt beam="2">  1       21 0.14367313E-01 0.39791241E+03</pdfrwt>
<totfact> 0.10518894E+05</totfact>
</mgrwt>
</event>
<event>
 6    0  0.1539497E-004  0.5220806E+03  0.7546771E-02  0.1008171E+00
         21   -1    0    0  502  501  0.00000000000E+00  0.00000000000E+00  0.33288372879E+03  0.33288372879E+03  0.00000000000E+00 0.  1.
         21   -1    0    0  501  502 -0.00000000000E+00 -0.00000000000E+00 -0.20470222943E+03  0.20470222943E+03  0.00000000000E+00 0.  1.
      99925    2    1    2    0    0 -0.10791476602E+02  0.52118416843E+02  0.24189846849E+03  0.36035209433E+03  0.26173646572E+03 0.  0.
         25    1    3    3    0    0  0.18860469788E+02  0.54668831268E+02  0.13814924724E+03  0.19513359794E+03  0.12509000000E+03 0.  0.
         25    1    3    3    0    0 -0.29651946390E+02 -0.25504144248E+01  0.10374922125E+03  0.16521849639E+03  0.12509000000E+03 0.  0.
         25    1    1    2    0    0  0.10791476602E+02 -0.52118416843E+02 -0.11371696913E+03  0.17723386389E+03  0.12509000000E+03 0.  0.
<mgrwt>
<rscale>  2 0.52208061E+03</rscale>
<asrwt>0</asrwt>
<pdfrwt beam="1">  1       21 0.48953489E-01 0.52208061E+03</pdfrwt>
<pdfrwt beam="2">  1       21 0.30103269E-01 0.52208061E+03</pdfrwt>
<totfact> 0.38039150E+04</totfact>
</mgrwt>
</event>
<event>
 6    0  0.1539497E-004  0.4243312E+03  0.7546771E-02  0.1035666E+00
         21   -1    0    0  502  501  0.00000000000E+00  0.00000000000E+00  0.48096946045E+03  0.48096946045E+03  0.00000000000E+00 0.  1.
         21   -1    0    0  501  502 -0.00000000000E+00 -0.00000000000E+00 -0.93590642196E+02  0.93590642196E+02  0.00000000000E+00 0.  1.
      99925    2    1    2    0    0 -0.25552948262E+02  0.25030220276E+02  0.15268290994E+03  0.30621490971E+03  0.26301337390E+03 0.  0.
         25    1    3    3    0    0 -0.45600788840E+02 -0.76332567113E+01  0.62261154220E+02  0.14717899978E+03  0.12509000000E+03 0.  0.
         25    1    1    2    0    0  0.25552948262E+02 -0.25030220276E+02  0.23469590831E+03  0.26834519293E+03  0.12509000000E+03 0.  0.
         25    1    3    3    0    0  0.20047840579E+02  0.32663476987E+02  0.90421755724E+02  0.15903590994E+03  0.12509000000E+03 0.  0.
<mgrwt>
<rscale>  2 0.42433119E+03</rscale>
<asrwt>0</asrwt>
<pdfrwt beam="1">  1       21 0.70730802E-01 0.42433119E+03</pdfrwt>
<pdfrwt beam="2">  1       21 0.13763330E-01 0.42433119E+03</pdfrwt>
<totfact> 0.77400851E+04</totfact>
</mgrwt>
</event>
<event>
 6    0  0.1539497E-004  0.4487982E+03  0.7546771E-02  0.1028081E+00
         21   -1    0    0  502  501  0.00000000000E+00  0.00000000000E+00  0.12252788425E+03  0.12252788425E+03  0.00000000000E+00 0.  1.
         21   -1    0    0  501  502 -0.00000000000E+00 -0.00000000000E+00 -0.41096737127E+03  0.41096737127E+03  0.00000000000E+00 0.  1.
      99925    2    1    2    0    0  0.10162801207E+03  0.10129718182E+02 -0.22129958422E+03  0.35860632312E+03  0.26304776178E+03 0.  0.
         25    1    1    2    0    0 -0.10162801207E+03 -0.10129718182E+02 -0.67139902804E+02  0.17488893240E+03  0.12509000000E+03 0.  0.
         25    1    3    3    0    0  0.14577413499E+02 -0.81731029442E+01 -0.12366886265E+03  0.17669407541E+03  0.12509000000E+03 0.  0.
         25    1    3    3    0    0  0.87050598571E+02  0.18302821126E+02 -0.97630721575E+02  0.18191224771E+03  0.12509000000E+03 0.  0.
<mgrwt>
<rscale>  2 0.44879823E+03</rscale>
<asrwt>0</asrwt>
<pdfrwt beam="1">  1       21 0.18018806E-01 0.44879823E+03</pdfrwt>
<pdfrwt beam="2">  1       21 0.60436378E-01 0.44879823E+03</pdfrwt>
<totfact> 0.66158789E+04</totfact>
</mgrwt>
</event>
<event>
 6    0  0.1539497E-004  0.4331288E+03  0.7546771E-02  0.1032876E+00
         21   -1    0    0  502  501  0.00000000000E+00  0.00000000000E+00  0.17400393974E+03  0.17400393974E+03  0.00000000000E+00 0.  1.
         21   -1    0    0  501  502 -0.00000000000E+00 -0.00000000000E+00 -0.26953487810E+03  0.26953487810E+03  0.00000000000E+00 0.  1.
      99925    2    1    2    0    0  0.51245444134E+02  0.53963892684E+02 -0.11636153142E+03  0.29650270334E+03  0.26236548904E+03 0.  0.
         25    1    3    3    0    0  0.59738197407E+02  0.31495012816E+02 -0.38738455590E+02  0.14733894293E+03  0.12509000000E+03 0.  0.
         25    1    3    3    0    0 -0.84927532736E+01  0.22468879867E+02 -0.77623075826E+02  0.14916376042E+03  0.12509000000E+03 0.  0.
         25    1    1    2    0    0 -0.51245444134E+02 -0.53963892684E+02  0.20830593052E+02  0.14703611449E+03  0.12509000000E+03 0.  0.
<mgrwt>
<rscale>  2 0.43312876E+03</rscale>
<asrwt>0</asrwt>
<pdfrwt beam="1">  1       21 0.25588815E-01 0.43312876E+03</pdfrwt>
<pdfrwt beam="2">  1       21 0.39637482E-01 0.43312876E+03</pdfrwt>
<totfact> 0.82935344E+04</totfact>
</mgrwt>
</event>
<event>
 6    0  0.1539497E-004  0.4072542E+03  0.7546771E-02  0.1041296E+00
         21   -1    0    0  502  501  0.00000000000E+00  0.00000000000E+00  0.38033535149E+03  0.38033535149E+03  0.00000000000E+00 0.  1.
         21   -1    0    0  501  502 -0.00000000000E+00 -0.00000000000E+00 -0.10901955795E+03  0.10901955795E+03  0.00000000000E+00 0.  1.
      99925    2    1    2    0    0 -0.35851819891E+02 -0.29039527473E+02  0.22199410415E+03  0.34719730573E+03  0.26293714018E+03 0.  0.
         25    1    3    3    0    0 -0.36764383658E+02 -0.18661003128E+02  0.15988525040E+03  0.20714886999E+03  0.12509000000E+03 0.  0.
         25    1    3    3    0    0  0.91256376658E+00 -0.10378524345E+02  0.62108853747E+02  0.14004843574E+03  0.12509000000E+03 0.  0.
         25    1    1    2    0    0  0.35851819891E+02  0.29039527473E+02  0.49321689395E+02  0.14215760370E+03  0.12509000000E+03 0.  0.
<mgrwt>
<rscale>  2 0.40725418E+03</rscale>
<asrwt>0</asrwt>
<pdfrwt beam="1">  1       21 0.55931669E-01 0.40725418E+03</pdfrwt>
<pdfrwt beam="2">  1       21 0.16032288E-01 0.40725418E+03</pdfrwt>
<totfact> 0.98297629E+04</totfact>
</mgrwt>
</event>
<event>
 6    0  0.1539497E-004  0.3993273E+03  0.7546771E-02  0.1044013E+00
         21   -1    0    0  502  501  0.00000000000E+00  0.00000000000E+00  0.88834145416E+02  0.88834145416E+02  0.00000000000E+00 0.  1.
         21   -1    0    0  501  502 -0.00000000000E+00 -0.00000000000E+00 -0.44876409131E+03  0.44876409131E+03  0.00000000000E+00 0.  1.
      99925    2    1    2    0    0  0.30579981396E+02 -0.19979552186E+02 -0.20579436357E+03  0.33575769668E+03  0.26276908691E+03 0.  0.
         25    1    3    3    0    0  0.19495574109E+02  0.19283723392E+02 -0.67071826064E+02  0.14456167317E+03  0.12509000000E+03 0.  0.
         25    1    3    3    0    0  0.11084407286E+02 -0.39263275578E+02 -0.13872253750E+03  0.19119602351E+03  0.12509000000E+03 0.  0.
         25    1    1    2    0    0 -0.30579981396E+02  0.19979552186E+02 -0.15413558232E+03  0.20184054004E+03  0.12509000000E+03 0.  0.
<mgrwt>
<rscale>  2 0.39932731E+03</rscale>
<asrwt>0</asrwt>
<pdfrwt beam="1">  1       21 0.13063845E-01 0.39932731E+03</pdfrwt>
<pdfrwt beam="2">  1       21 0.65994720E-01 0.39932731E+03</pdfrwt>
<totfact> 0.99993057E+04</totfact>
</mgrwt>
</event>
<event>
 6    0  0.1539497E-004  0.4021749E+03  0.7546771E-02  0.1043029E+00
         21   -1    0    0  502  501  0.00000000000E+00  0.00000000000E+00  0.49769181813E+02  0.49769181813E+02  0.00000000000E+00 0.  1.
         21   -1    0    0  501  502 -0.00000000000E+00 -0.00000000000E+00 -0.81247383228E+03  0.81247383228E+03  0.00000000000E+00 0.  1.
      99925    2    1    2    0    0 -0.24161886458E+02  0.38198037085E+02 -0.46360411584E+03  0.53490293908E+03  0.26296290845E+03 0.  0.
         25    1    1    2    0    0  0.24161886458E+02 -0.38198037085E+02 -0.29910053462E+03  0.32734007501E+03  0.12509000000E+03 0.  0.
         25    1    3    3    0    0 -0.34453250427E+02 -0.12587874084E+02 -0.25129471472E+03  0.28309366434E+03  0.12509000000E+03 0.  0.
         25    1    3    3    0    0  0.10291363969E+02  0.50785911169E+02 -0.21230940112E+03  0.25180927475E+03  0.12509000000E+03 0.  0.
<mgrwt>
<rscale>  2 0.40217488E+03</rscale>
<asrwt>0</asrwt>
<pdfrwt beam="1">  1       21 0.73189972E-02 0.40217488E+03</pdfrwt>
<pdfrwt beam="2">  1       21 0.11948145E+00 0.40217488E+03</pdfrwt>
<totfact> 0.69503949E+04</totfact>
</mgrwt>
</event>
<event>
 6    0  0.1539497E-004  0.4196194E+03  0.7546771E-02  0.1037190E+00
         21   -1    0    0  502  501  0.00000000000E+00  0.00000000000E+00  0.91580479195E+03  0.91580479195E+03  0.00000000000E+00 0. -1.
         21   -1    0    0  501  502 -0.00000000000E+00 -0.00000000000E+00 -0.48067123196E+02  0.48067123196E+02  0.00000000000E+00 0. -1.
      99925    2    1    2    0    0 -0.38372966805E+02  0.10058809010E+02  0.41901318895E+03  0.49635204273E+03  0.26309624398E+03 0.  0.
         25    1    1    2    0    0  0.38372966805E+02 -0.10058809010E+02  0.44872447981E+03  0.46751987241E+03  0.12509000000E+03 0.  0.
         25    1    3    3    0    0 -0.62156312757E+00 -0.23709101705E+02  0.16182330390E+03  0.20590482663E+03  0.12509000000E+03 0.  0.
         25    1    3    3    0    0 -0.37751403677E+02  0.33767910714E+02  0.25718988504E+03  0.29044721610E+03  0.12509000000E+03 0.  0.
<mgrwt>
<rscale>  2 0.41961936E+03</rscale>
<asrwt>0</asrwt>
<pdfrwt beam="1">  1       21 0.13467716E+00 0.41961936E+03</pdfrwt>
<pdfrwt beam="2">  1       21 0.70686952E-02 0.41961936E+03</pdfrwt>
<totfact> 0.54059603E+04</totfact>
</mgrwt>
</event>
<event>
 6    0  0.1539497E-004  0.4387122E+03  0.7546771E-02  0.1031143E+00
         21   -1    0    0  502  501  0.00000000000E+00  0.00000000000E+00  0.27243696287E+02  0.27243696287E+02  0.00000000000E+00 0.  1.
         21   -1    0    0  501  502 -0.00000000000E+00 -0.00000000000E+00 -0.17661732716E+04  0.17661732716E+04  0.00000000000E+00 0.  1.
      99925    2    1    2    0    0 -0.53823294279E+02  0.74905061495E+02 -0.12369477657E+04  0.12679258067E+04  0.26284664898E+03 0.  0.
         25    1    1    2    0    0  0.53823294279E+02 -0.74905061495E+02 -0.50198180963E+03  0.52549116124E+03  0.12509000000E+03 0.  0.
         25    1    3    3    0    0 -0.59266907103E+02  0.14262946365E+02 -0.58977073394E+03  0.60596454074E+03  0.12509000000E+03 0.  0.
         25    1    3    3    0    0  0.54436128244E+01  0.60642115131E+02 -0.64717703178E+03  0.66196126595E+03  0.12509000000E+03 0.  0.
<mgrwt>
<rscale>  2 0.43871215E+03</rscale>
<asrwt>0</asrwt>
<pdfrwt beam="1">  1       21 0.40064248E-02 0.43871215E+03</pdfrwt>
<pdfrwt beam="2">  1       21 0.25973144E+00 0.43871215E+03</pdfrwt>
<totfact> 0.19769847E+04</totfact>
</mgrwt>
</event>
<event>
 6    0  0.1539497E-004  0.4049865E+03  0.7546771E-02  0.1042067E+00
         21   -1    0    0  502  501  0.00000000000E+00  0.00000000000E+00  0.11069792439E+03  0.11069792439E+03  0.00000000000E+00 0.  1.
         21   -1    0    0  501  502 -0.00000000000E+00 -0.00000000000E+00 -0.37040910980E+03  0.37040910980E+03  0.00000000000E+00 0.  1.
      99925    2    1    2    0    0  0.17552111793E+02  0.41614594633E+02 -0.13618215058E+03  0.29959455071E+03  0.26300468734E+03 0.  0.
         25    1    1    2    0    0 -0.17552111793E+02 -0.41614594633E+02 -0.12352903483E+03  0.18151248348E+03  0.12509000000E+03 0.  0.
         25    1    3    3    0    0 -0.12512550064E+01 -0.14327658570E+02 -0.44014005394E+02  0.13338511240E+03  0.12509000000E+03 0.  0.
         25    1    3    3    0    0  0.18803366799E+02  0.55942253203E+02 -0.92168145185E+02  0.16620943831E+03  0.12509000000E+03 0.  0.
<mgrwt>
<rscale>  2 0.40498652E+03</rscale>
<asrwt>0</asrwt>
<pdfrwt beam="1">  1       21 0.16279107E-01 0.40498652E+03</pdfrwt>
<pdfrwt beam="2">  1       21 0.54471927E-01 0.40498652E+03</pdfrwt>
<totfact> 0.10119027E+05</totfact>
</mgrwt>
</event>
<event>
 6    0  0.1539497E-004  0.4338780E+03  0.7546771E-02  0.1032642E+00
         21   -1    0    0  502  501  0.00000000000E+00  0.00000000000E+00  0.24169146773E+03  0.24169146773E+03  0.00000000000E+00 0.  1.
         21   -1    0    0  501  502 -0.00000000000E+00 -0.00000000000E+00 -0.19472151902E+03  0.19472151902E+03  0.00000000000E+00 0.  1.
      99925    2    1    2    0    0  0.86356928034E+02  0.29346189023E+02  0.17700480322E+02  0.27886005054E+03  0.26292756218E+03 0.  0.
         25    1    3    3    0    0  0.59616540896E+02  0.52397160116E+02  0.14369789569E+02  0.14884083206E+03  0.12509000000E+03 0.  0.
         25    1    1    2    0    0 -0.86356928034E+02 -0.29346189023E+02  0.29269468387E+02  0.15755293621E+03  0.12509000000E+03 0.  0.
         25    1    3    3    0    0  0.26740387138E+02 -0.23050971093E+02  0.33306907533E+01  0.13001921848E+03  0.12509000000E+03 0.  0.
<mgrwt>
<rscale>  2 0.43387800E+03</rscale>
<asrwt>0</asrwt>
<pdfrwt beam="1">  1       21 0.35542863E-01 0.43387800E+03</pdfrwt>
<pdfrwt beam="2">  1       21 0.28635518E-01 0.43387800E+03</pdfrwt>
<totfact> 0.83070470E+04</totfact>
</mgrwt>
</event>
<event>
 6    0  0.1539497E-004  0.4725023E+03  0.7546771E-02  0.1021216E+00
         21   -1    0    0  502  501  0.00000000000E+00  0.00000000000E+00  0.23941413848E+03  0.23941413848E+03  0.00000000000E+00 0.  1.
         21   -1    0    0  501  502 -0.00000000000E+00 -0.00000000000E+00 -0.23312998073E+03  0.23312998073E+03  0.00000000000E+00 0.  1.
      99925    2    1    2    0    0  0.13209925656E+02 -0.43774542225E+02  0.12449331345E+03  0.29446653703E+03  0.26290919279E+03 0.  0.
         25    1    1    2    0    0 -0.13209925656E+02  0.43774542225E+02 -0.11820915570E+03  0.17807758218E+03  0.12509000000E+03 0.  0.
         25    1    3    3    0    0  0.71585010543E+01 -0.34499815328E+02  0.10564452591E+03  0.16748061186E+03  0.12509000000E+03 0.  0.
         25    1    3    3    0    0  0.60514246018E+01 -0.92747268970E+01  0.18848787537E+02  0.12698592517E+03  0.12509000000E+03 0.  0.
<mgrwt>
<rscale>  2 0.47250233E+03</rscale>
<asrwt>0</asrwt>
<pdfrwt beam="1">  1       21 0.35207962E-01 0.47250233E+03</pdfrwt>
<pdfrwt beam="2">  1       21 0.34283820E-01 0.47250233E+03</pdfrwt>
<totfact> 0.58650609E+04</totfact>
</mgrwt>
</event>
<event>
 6    0  0.1539497E-004  0.4384886E+03  0.7546771E-02  0.1031212E+00
         21   -1    0    0  502  501  0.00000000000E+00  0.00000000000E+00  0.21742032389E+02  0.21742032389E+02  0.00000000000E+00 0.  1.
         21   -1    0    0  501  502 -0.00000000000E+00 -0.00000000000E+00 -0.22108357815E+04  0.22108357815E+04  0.00000000000E+00 0.  1.
      99925    2    1    2    0    0  0.80953933641E+02 -0.32622031128E+02 -0.16126901071E+04  0.16363342371E+04  0.26306390391E+03 0.  0.
         25    1    3    3    0    0  0.68767795314E+02  0.13188932126E+02 -0.84804529924E+03  0.86007633107E+03  0.12509000000E+03 0.  0.
         25    1    1    2    0    0 -0.80953933641E+02  0.32622031128E+02 -0.57640364198E+03  0.59624357680E+03  0.12509000000E+03 0.  0.
         25    1    3    3    0    0  0.12186138327E+02 -0.45810963254E+02 -0.76464480786E+03  0.77625790599E+03  0.12509000000E+03 0.  0.
<mgrwt>
<rscale>  2 0.43848860E+03</rscale>
<asrwt>0</asrwt>
<pdfrwt beam="1">  1       21 0.31973573E-02 0.43848860E+03</pdfrwt>
<pdfrwt beam="2">  1       21 0.32512296E+00 0.43848860E+03</pdfrwt>
<totfact> 0.11701039E+04</totfact>
</mgrwt>
</event>
<event>
 6    0  0.1539497E-004  0.4210449E+03  0.7546771E-02  0.1036727E+00
         21   -1    0    0  502  501  0.00000000000E+00  0.00000000000E+00  0.15360197136E+03  0.15360197136E+03  0.00000000000E+00 0.  1.
         21   -1    0    0  501  502 -0.00000000000E+00 -0.00000000000E+00 -0.28853596886E+03  0.28853596886E+03  0.00000000000E+00 0.  1.
      99925    2    1    2    0    0  0.83413158135E+01  0.12890111882E+02 -0.16722272428E+03  0.31203873765E+03  0.26300000332E+03 0.  0.
         25    1    3    3    0    0 -0.16975381242E+02  0.36212574066E+01 -0.42235144065E+02  0.13316378099E+03  0.12509000000E+03 0.  0.
         25    1    3    3    0    0  0.25316697056E+02  0.92688544751E+01 -0.12498758021E+03  0.17887495666E+03  0.12509000000E+03 0.  0.
         25    1    1    2    0    0 -0.83413158135E+01 -0.12890111882E+02  0.32288726779E+02  0.13009920258E+03  0.12509000000E+03 0.  0.
<mgrwt>
<rscale>  2 0.42104486E+03</rscale>
<asrwt>0</asrwt>
<pdfrwt beam="1">  1       21 0.22588525E-01 0.42104486E+03</pdfrwt>
<pdfrwt beam="2">  1       21 0.42431760E-01 0.42104486E+03</pdfrwt>
<totfact> 0.91947182E+04</totfact>
</mgrwt>
</event>
<event>
 6    0  0.1539497E-004  0.6433814E+03  0.7546771E-02  0.9819278E-01
         21   -1    0    0  502  501  0.00000000000E+00  0.00000000000E+00  0.22973070472E+03  0.22973070472E+03  0.00000000000E+00 0.  1.
         21   -1    0    0  501  502 -0.00000000000E+00 -0.00000000000E+00 -0.45046184547E+03  0.45046184547E+03  0.00000000000E+00 0.  1.
      99925    2    1    2    0    0 -0.49605504880E+02 -0.97348306800E+02  0.11388626322E+03  0.30662366217E+03  0.26288893149E+03 0.  0.
         25    1    1    2    0    0  0.49605504880E+02  0.97348306800E+02 -0.33461740398E+03  0.37356888802E+03  0.12509000000E+03 0.  0.
         25    1    3    3    0    0 -0.37271303177E+01 -0.47943081484E+02  0.18051523015E+02  0.13522498344E+03  0.12509000000E+03 0.  0.
         25    1    3    3    0    0 -0.45878374563E+02 -0.49405225315E+02  0.95834740207E+02  0.17139867873E+03  0.12509000000E+03 0.  0.
<mgrwt>
<rscale>  2 0.64338143E+03</rscale>
<asrwt>0</asrwt>
<pdfrwt beam="1">  1       21 0.33783928E-01 0.64338143E+03</pdfrwt>
<pdfrwt beam="2">  1       21 0.66244388E-01 0.64338143E+03</pdfrwt>
<totfact> 0.15214938E+04</totfact>
</mgrwt>
</event>
<event>
 6    0  0.1539497E-004  0.3952574E+03  0.7546771E-02  0.1045434E+00
         21   -1    0    0  502  501  0.00000000000E+00  0.00000000000E+00  0.11033576865E+03  0.11033576865E+03  0.00000000000E+00 0.  1.
         21   -1    0    0  501  502 -0.00000000000E+00 -0.00000000000E+00 -0.35398411500E+03  0.35398411500E+03  0.00000000000E+00 0.  1.
      99925    2    1    2    0    0  0.12231283946E+02 -0.18267447603E+02 -0.13142396434E+03  0.29483500537E+03  0.26300592776E+03 0.  0.
         25    1    3    3    0    0  0.80789244037E+01 -0.32865811205E+02 -0.10331252276E+03  0.16572994909E+03  0.12509000000E+03 0.  0.
         25    1    1    2    0    0 -0.12231283946E+02  0.18267447603E+02 -0.11222438200E+03  0.16948487828E+03  0.12509000000E+03 0.  0.
         25    1    3    3    0    0  0.41523595427E+01  0.14598363602E+02 -0.28111441586E+02  0.12910505628E+03  0.12509000000E+03 0.  0.
<mgrwt>
<rscale>  2 0.39525743E+03</rscale>
<asrwt>0</asrwt>
<pdfrwt beam="1">  1       21 0.16225849E-01 0.39525743E+03</pdfrwt>
<pdfrwt beam="2">  1       21 0.52056487E-01 0.39525743E+03</pdfrwt>
<totfact> 0.11242301E+05</totfact>
</mgrwt>
</event>
<event>
 6    0  0.1539497E-004  0.4660996E+03  0.7546771E-02  0.1023027E+00
         21   -1    0    0  502  501  0.00000000000E+00  0.00000000000E+00  0.37663844829E+03  0.37663844829E+03  0.00000000000E+00 0.  1.
         21   -1    0    0  501  502 -0.00000000000E+00 -0.00000000000E+00 -0.14420250063E+03  0.14420250063E+03  0.00000000000E+00 0.  1.
      99925    2    1    2    0    0 -0.67749783268E+02  0.10216215627E+03  0.13019055403E+03  0.31803866115E+03  0.26300545683E+03 0.  0.
         25    1    3    3    0    0 -0.12753838049E+02  0.31325667811E+02  0.93551024481E+02  0.15982258955E+03  0.12509000000E+03 0.  0.
         25    1    1    2    0    0  0.67749783268E+02 -0.10216215627E+03  0.10224539363E+03  0.20280228777E+03  0.12509000000E+03 0.  0.
         25    1    3    3    0    0 -0.54995945219E+02  0.70836488455E+02  0.36639529550E+02  0.15821607160E+03  0.12509000000E+03 0.  0.
<mgrwt>
<rscale>  2 0.46609959E+03</rscale>
<asrwt>0</asrwt>
<pdfrwt beam="1">  1       21 0.55388007E-01 0.46609959E+03</pdfrwt>
<pdfrwt beam="2">  1       21 0.21206250E-01 0.46609959E+03</pdfrwt>
<totfact> 0.58504722E+04</totfact>
</mgrwt>
</event>
<event>
 6    0  0.1539497E-004  0.4678596E+03  0.7546771E-02  0.1022526E+00
         21   -1    0    0  502  501  0.00000000000E+00  0.00000000000E+00  0.63561189667E+03  0.63561189667E+03  0.00000000000E+00 0.  1.
         21   -1    0    0  501  502 -0.00000000000E+00 -0.00000000000E+00 -0.86095240445E+02  0.86095240445E+02  0.00000000000E+00 0.  1.
      99925    2    1    2    0    0 -0.11749892373E+03 -0.42231774172E+02  0.34571767816E+03  0.45194603653E+03  0.26295434417E+03 0.  0.
         25    1    3    3    0    0 -0.95463098187E+02 -0.65683736898E+01  0.16386333822E+03  0.22727746998E+03  0.12509000000E+03 0.  0.
         25    1    1    2    0    0  0.11749892373E+03  0.42231774172E+02  0.20379897806E+03  0.26976110058E+03  0.12509000000E+03 0.  0.
         25    1    3    3    0    0 -0.22035825540E+02 -0.35663400482E+02  0.18185433994E+03  0.22466856655E+03  0.12509000000E+03 0.  0.
<mgrwt>
<rscale>  2 0.46785963E+03</rscale>
<asrwt>0</asrwt>
<pdfrwt beam="1">  1       21 0.93472335E-01 0.46785963E+03</pdfrwt>
<pdfrwt beam="2">  1       21 0.12661065E-01 0.46785963E+03</pdfrwt>
<totfact> 0.46821543E+04</totfact>
</mgrwt>
</event>
<event>
 6    0  0.1539497E-004  0.4429855E+03  0.7546771E-02  0.1029835E+00
         21   -1    0    0  502  501  0.00000000000E+00  0.00000000000E+00  0.29117983445E+03  0.29117983445E+03  0.00000000000E+00 0. -1.
         21   -1    0    0  501  502 -0.00000000000E+00 -0.00000000000E+00 -0.16848364967E+03  0.16848364967E+03  0.00000000000E+00 0. -1.
      99925    2    1    2    0    0  0.33099617834E+02 -0.59793305082E+02  0.15609470058E+03  0.31326063924E+03  0.26286089194E+03 0.  0.
         25    1    3    3    0    0  0.37051624304E+02 -0.62866338741E+02  0.10054031173E+03  0.17629765113E+03  0.12509000000E+03 0.  0.
         25    1    3    3    0    0 -0.39520064698E+01  0.30730336593E+01  0.55554388851E+02  0.13696298811E+03  0.12509000000E+03 0.  0.
         25    1    1    2    0    0 -0.33099617834E+02  0.59793305082E+02 -0.33398515806E+02  0.14640284489E+03  0.12509000000E+03 0.  0.
<mgrwt>
<rscale>  2 0.44298551E+03</rscale>
<asrwt>0</asrwt>
<pdfrwt beam="1">  1       21 0.42820564E-01 0.44298551E+03</pdfrwt>
<pdfrwt beam="2">  1       21 0.24777007E-01 0.44298551E+03</pdfrwt>
<totfact> 0.75120608E+04</totfact>
</mgrwt>
</event>
<event>
 6    0  0.1539497E-004  0.5001113E+03  0.7546771E-02  0.1013750E+00
         21   -1    0    0  502  501  0.00000000000E+00  0.00000000000E+00  0.58767148337E+03  0.58767148337E+03  0.00000000000E+00 0. -1.
         21   -1    0    0  501  502 -0.00000000000E+00 -0.00000000000E+00 -0.10639928214E+03  0.10639928214E+03  0.00000000000E+00 0. -1.
      99925    2    1    2    0    0 -0.12294886342E+03 -0.27568521126E+02  0.17515255071E+03  0.34018774118E+03  0.26300729429E+03 0.  0.
         25    1    3    3    0    0 -0.29616921322E+02  0.15875317961E+02  0.82293763086E+02  0.15345670168E+03  0.12509000000E+03 0.  0.
         25    1    3    3    0    0 -0.93331942098E+02 -0.43443839087E+02  0.92858787624E+02  0.18673103949E+03  0.12509000000E+03 0.  0.
         25    1    1    2    0    0  0.12294886342E+03  0.27568521126E+02  0.30611965052E+03  0.35388302433E+03  0.12509000000E+03 0.  0.
<mgrwt>
<rscale>  2 0.50011128E+03</rscale>
<asrwt>0</asrwt>
<pdfrwt beam="1">  1       21 0.86422275E-01 0.50011128E+03</pdfrwt>
<pdfrwt beam="2">  1       21 0.15646954E-01 0.50011128E+03</pdfrwt>
<totfact> 0.37863922E+04</totfact>
</mgrwt>
</event>
<event>
 6    0  0.1539497E-004  0.4274411E+03  0.7546771E-02  0.1034671E+00
         21   -1    0    0  502  501  0.00000000000E+00  0.00000000000E+00  0.24237957283E+03  0.24237957283E+03  0.00000000000E+00 0. -1.
         21   -1    0    0  501  502 -0.00000000000E+00 -0.00000000000E+00 -0.18845019535E+03  0.18845019535E+03  0.00000000000E+00 0. -1.
      99925    2    1    2    0    0 -0.71269683440E+02  0.77818903656E+01 -0.10478685453E+02  0.27291893174E+03  0.26312547360E+03 0.  0.
         25    1    1    2    0    0  0.71269683440E+02 -0.77818903656E+01  0.64408062930E+02  0.15791083644E+03  0.12509000000E+03 0.  0.
         25    1    3    3    0    0 -0.44723137072E+02  0.30813804570E+02  0.24050144082E+02  0.13847587180E+03  0.12509000000E+03 0.  0.
         25    1    3    3    0    0 -0.26546546368E+02 -0.23031914205E+02 -0.34528829535E+02  0.13444305994E+03  0.12509000000E+03 0.  0.
<mgrwt>
<rscale>  2 0.42744112E+03</rscale>
<asrwt>0</asrwt>
<pdfrwt beam="1">  1       21 0.35644055E-01 0.42744112E+03</pdfrwt>
<pdfrwt beam="2">  1       21 0.27713264E-01 0.42744112E+03</pdfrwt>
<totfact> 0.88211283E+04</totfact>
</mgrwt>
</event>
<event>
 6    0  0.1539497E-004  0.4183921E+03  0.7546771E-02  0.1037591E+00
         21   -1    0    0  502  501  0.00000000000E+00  0.00000000000E+00  0.50761039919E+03  0.50761039919E+03  0.00000000000E+00 0.  1.
         21   -1    0    0  501  502 -0.00000000000E+00 -0.00000000000E+00 -0.86213737659E+02  0.86213737659E+02  0.00000000000E+00 0.  1.
      99925    2    1    2    0    0  0.39759579815E+01  0.62515449204E+02  0.21985162987E+03  0.34848376610E+03  0.26302510612E+03 0.  0.
         25    1    3    3    0    0 -0.61221244229E+01 -0.96512197804E+01  0.10125985251E+03  0.16134339863E+03  0.12509000000E+03 0.  0.
         25    1    1    2    0    0 -0.39759579815E+01 -0.62515449204E+02  0.20154503167E+03  0.24534037075E+03  0.12509000000E+03 0.  0.
         25    1    3    3    0    0  0.10098082404E+02  0.72166668985E+02  0.11859177736E+03  0.18714036747E+03  0.12509000000E+03 0.  0.
<mgrwt>
<rscale>  2 0.41839211E+03</rscale>
<asrwt>0</asrwt>
<pdfrwt beam="1">  1       21 0.74648587E-01 0.41839211E+03</pdfrwt>
<pdfrwt beam="2">  1       21 0.12678491E-01 0.41839211E+03</pdfrwt>
<totfact> 0.79739673E+04</totfact>
</mgrwt>
</event>
<event>
 6    0  0.1539497E-004  0.4884447E+03  0.7546771E-02  0.1016840E+00
         21   -1    0    0  502  501  0.00000000000E+00  0.00000000000E+00  0.10611907289E+03  0.10611907289E+03  0.00000000000E+00 0. -1.
         21   -1    0    0  501  502 -0.00000000000E+00 -0.00000000000E+00 -0.56205322146E+03  0.56205322146E+03  0.00000000000E+00 0. -1.
      99925    2    1    2    0    0  0.82698885187E+02  0.41782355820E+02 -0.13138836684E+03  0.30822459896E+03  0.26297267842E+03 0.  0.
         25    1    3    3    0    0  0.51956068223E+02  0.54519000353E+01 -0.10580597211E+03  0.17196385688E+03  0.12509000000E+03 0.  0.
         25    1    1    2    0    0 -0.82698885187E+02 -0.41782355820E+02 -0.32454578174E+03  0.35994769538E+03  0.12509000000E+03 0.  0.
         25    1    3    3    0    0  0.30742816964E+02  0.36330455784E+02 -0.25582394727E+02  0.13626074208E+03  0.12509000000E+03 0.  0.
<mgrwt>
<rscale>  2 0.48844474E+03</rscale>
<asrwt>0</asrwt>
<pdfrwt beam="1">  1       21 0.15605746E-01 0.48844474E+03</pdfrwt>
<pdfrwt beam="2">  1       21 0.82654885E-01 0.48844474E+03</pdfrwt>
<totfact> 0.42342856E+04</totfact>
</mgrwt>
</event>
<event>
 6    0  0.1539497E-004  0.3961835E+03  0.7546771E-02  0.1045109E+00
         21   -1    0    0  502  501  0.00000000000E+00  0.00000000000E+00  0.66915811479E+02  0.66915811479E+02  0.00000000000E+00 0.  1.
         21   -1    0    0  501  502 -0.00000000000E+00 -0.00000000000E+00 -0.58641354639E+03  0.58641354639E+03  0.00000000000E+00 0.  1.
      99925    2    1    2    0    0  0.14193316332E+02 -0.27237609806E+02 -0.38294712321E+03  0.46561437372E+03  0.26306825773E+03 0.  0.
         25    1    3    3    0    0  0.18836670667E+02  0.25292328907E+02 -0.19298167832E+03  0.23212918457E+03  0.12509000000E+03 0.  0.
         25    1    1    2    0    0 -0.14193316332E+02  0.27237609806E+02 -0.13655061170E+03  0.18771498415E+03  0.12509000000E+03 0.  0.
         25    1    3    3    0    0 -0.46433543343E+01 -0.52529938713E+02 -0.18996544489E+03  0.23348518915E+03  0.12509000000E+03 0.  0.
<mgrwt>
<rscale>  2 0.39618348E+03</rscale>
<asrwt>0</asrwt>
<pdfrwt beam="1">  1       21 0.98405599E-02 0.39618348E+03</pdfrwt>
<pdfrwt beam="2">  1       21 0.86237292E-01 0.39618348E+03</pdfrwt>
<totfact> 0.90856590E+04</totfact>
</mgrwt>
</event>
<event>
 6    0  0.1539497E-004  0.4382523E+03  0.7546771E-02  0.1031284E+00
         21   -1    0    0  502  501  0.00000000000E+00  0.00000000000E+00  0.28326459899E+04  0.28326459899E+04  0.00000000000E+00 0.  1.
         21   -1    0    0  501  502 -0.00000000000E+00 -0.00000000000E+00 -0.16951034122E+02  0.16951034122E+02  0.00000000000E+00 0.  1.
      99925    2    1    2    0    0 -0.15824498564E+02  0.16911833979E+02  0.11917816457E+04  0.12207083318E+04  0.26315188661E+03 0.  0.
         25    1    1    2    0    0  0.15824498564E+02 -0.16911833979E+02  0.16239133101E+04  0.16288886923E+04  0.12509000000E+03 0.  0.
         25    1    3    3    0    0 -0.14433948548E+02 -0.48212494601E+01  0.41809450340E+03  0.43667162169E+03  0.12509000000E+03 0.  0.
         25    1    3    3    0    0 -0.13905500158E+01  0.21733083439E+02  0.77368714226E+03  0.78403671007E+03  0.12509000000E+03 0.  0.
<mgrwt>
<rscale>  2 0.43825234E+03</rscale>
<asrwt>0</asrwt>
<pdfrwt beam="1">  1       21 0.41656526E+00 0.43825234E+03</pdfrwt>
<pdfrwt beam="2">  1       21 0.24928011E-02 0.43825234E+03</pdfrwt>
<totfact> 0.47668288E+03</totfact>
</mgrwt>
</event>
<event>
 6    0  0.1539497E-004  0.4194276E+03  0.7546771E-02  0.1037253E+00
         21   -1    0    0  502  501  0.00000000000E+00  0.00000000000E+00  0.15736057676E+03  0.15736057676E+03  0.00000000000E+00 0. -1.
         21   -1    0    0  501  502 -0.00000000000E+00 -0.00000000000E+00 -0.27948468536E+03  0.27948468536E+03  0.00000000000E+00 0. -1.
      99925    2    1    2    0    0  0.74080171310E+02 -0.11656417027E+02 -0.80194538304E+02  0.28509105030E+03  0.26310073955E+03 0.  0.
         25    1    1    2    0    0 -0.74080171310E+02  0.11656417027E+02 -0.41929570295E+02  0.15175421182E+03  0.12509000000E+03 0.  0.
         25    1    3    3    0    0  0.69714576567E+02  0.15922914469E+02 -0.56399998274E+02  0.15473244423E+03  0.12509000000E+03 0.  0.
         25    1    3    3    0    0  0.43655947426E+01 -0.27579331496E+02 -0.23794540030E+02  0.13035860608E+03  0.12509000000E+03 0.  0.
<mgrwt>
<rscale>  2 0.41942757E+03</rscale>
<asrwt>0</asrwt>
<pdfrwt beam="1">  1       21 0.23141261E-01 0.41942757E+03</pdfrwt>
<pdfrwt beam="2">  1       21 0.41100689E-01 0.41942757E+03</pdfrwt>
<totfact> 0.93780989E+04</totfact>
</mgrwt>
</event>
<event>
 6    0  0.1539497E-004  0.4111291E+03  0.7546771E-02  0.1039993E+00
         21   -1    0    0  502  501  0.00000000000E+00  0.00000000000E+00  0.56021861558E+03  0.56021861558E+03  0.00000000000E+00 0. -1.
         21   -1    0    0  501  502 -0.00000000000E+00 -0.00000000000E+00 -0.75429106166E+02  0.75429106166E+02  0.00000000000E+00 0. -1.
      99925    2    1    2    0    0  0.14898643142E+02  0.61204061285E+02  0.30250519578E+03  0.40577169911E+03  0.26300831097E+03 0.  0.
         25    1    3    3    0    0 -0.18525440307E+02  0.10823400832E+02  0.10744195619E+03  0.16628776261E+03  0.12509000000E+03 0.  0.
         25    1    3    3    0    0  0.33424083449E+02  0.50380660453E+02  0.19506323959E+03  0.23948393650E+03  0.12509000000E+03 0.  0.
         25    1    1    2    0    0 -0.14898643142E+02 -0.61204061285E+02  0.18228431364E+03  0.22987602264E+03  0.12509000000E+03 0.  0.
<mgrwt>
<rscale>  2 0.41112913E+03</rscale>
<asrwt>0</asrwt>
<pdfrwt beam="1">  1       21 0.82385088E-01 0.41112913E+03</pdfrwt>
<pdfrwt beam="2">  1       21 0.11092516E-01 0.41112913E+03</pdfrwt>
<totfact> 0.81187842E+04</totfact>
</mgrwt>
</event>
<event>
 6    0  0.1539497E-004  0.4408532E+03  0.7546771E-02  0.1030485E+00
         21   -1    0    0  502  501  0.00000000000E+00  0.00000000000E+00  0.21929295372E+03  0.21929295372E+03  0.00000000000E+00 0. -1.
         21   -1    0    0  501  502 -0.00000000000E+00 -0.00000000000E+00 -0.22156613310E+03  0.22156613310E+03  0.00000000000E+00 0. -1.
      99925    2    1    2    0    0  0.21125039571E+02 -0.78698651829E+02 -0.58322539406E+02  0.28139503458E+03  0.26294847743E+03 0.  0.
         25    1    3    3    0    0 -0.20163060553E+02 -0.64521271531E+02 -0.39537541395E+02  0.14758139710E+03  0.12509000000E+03 0.  0.
         25    1    3    3    0    0  0.41288100124E+02 -0.14177380298E+02 -0.18784998011E+02  0.13381363747E+03  0.12509000000E+03 0.  0.
         25    1    1    2    0    0 -0.21125039571E+02  0.78698651829E+02  0.56049360025E+02  0.15946405224E+03  0.12509000000E+03 0.  0.
<mgrwt>
<rscale>  2 0.44085323E+03</rscale>
<asrwt>0</asrwt>
<pdfrwt beam="1">  1       21 0.32248964E-01 0.44085323E+03</pdfrwt>
<pdfrwt beam="2">  1       21 0.32583255E-01 0.44085323E+03</pdfrwt>
<totfact> 0.78038036E+04</totfact>
</mgrwt>
</event>
<event>
 6    0  0.1539497E-004  0.4283012E+03  0.7546771E-02  0.1034398E+00
         21   -1    0    0  502  501  0.00000000000E+00  0.00000000000E+00  0.51893542240E+02  0.51893542240E+02  0.00000000000E+00 0. -1.
         21   -1    0    0  501  502 -0.00000000000E+00 -0.00000000000E+00 -0.88374134929E+03  0.88374134929E+03  0.00000000000E+00 0. -1.
      99925    2    1    2    0    0 -0.66761914020E+01 -0.20815043460E+02 -0.35563818066E+03  0.44278506254E+03  0.26287308440E+03 0.  0.
         25    1    1    2    0    0  0.66761914020E+01  0.20815043460E+02 -0.47620962639E+03  0.49284982899E+03  0.12509000000E+03 0.  0.
         25    1    3    3    0    0  0.12083310263E+02 -0.23358309494E+02 -0.23737205867E+03  0.26960085190E+03  0.12509000000E+03 0.  0.
         25    1    3    3    0    0 -0.18759501665E+02  0.25432660343E+01 -0.11826612199E+03  0.17318421064E+03  0.12509000000E+03 0.  0.
<mgrwt>
<rscale>  2 0.42830115E+03</rscale>
<asrwt>0</asrwt>
<pdfrwt beam="1">  1       21 0.76314029E-02 0.42830115E+03</pdfrwt>
<pdfrwt beam="2">  1       21 0.12996197E+00 0.42830115E+03</pdfrwt>
<totfact> 0.51710413E+04</totfact>
</mgrwt>
</event>
<event>
 6    0  0.1539497E-004  0.5032980E+03  0.7546771E-02  0.1012922E+00
         21   -1    0    0  502  501  0.00000000000E+00  0.00000000000E+00  0.12907288843E+03  0.12907288843E+03  0.00000000000E+00 0.  1.
         21   -1    0    0  501  502 -0.00000000000E+00 -0.00000000000E+00 -0.49063152335E+03  0.49063152335E+03  0.00000000000E+00 0.  1.
      99925    2    1    2    0    0 -0.20451449799E+02 -0.11711974091E+03 -0.98237456028E+02  0.30486977763E+03  0.26298229605E+03 0.  0.
         25    1    3    3    0    0 -0.13131862886E+02 -0.16235564521E+02 -0.55413982842E+02  0.13839890524E+03  0.12509000000E+03 0.  0.
         25    1    3    3    0    0 -0.73195869128E+01 -0.10088417639E+03 -0.42823473186E+02  0.16647087239E+03  0.12509000000E+03 0.  0.
         25    1    1    2    0    0  0.20451449799E+02  0.11711974091E+03 -0.26332117889E+03  0.31483463415E+03  0.12509000000E+03 0.  0.
<mgrwt>
<rscale>  2 0.50329803E+03</rscale>
<asrwt>0</asrwt>
<pdfrwt beam="1">  1       21 0.18981307E-01 0.50329803E+03</pdfrwt>
<pdfrwt beam="2">  1       21 0.72151694E-01 0.50329803E+03</pdfrwt>
<totfact> 0.39926047E+04</totfact>
</mgrwt>
</event>
<event>
 6    0  0.1539497E-004  0.3902768E+03  0.7546771E-02  0.1047199E+00
         21   -1    0    0  502  501  0.00000000000E+00  0.00000000000E+00  0.82136890713E+02  0.82136890713E+02  0.00000000000E+00 0. -1.
         21   -1    0    0  501  502 -0.00000000000E+00 -0.00000000000E+00 -0.46360416254E+03  0.46360416254E+03  0.00000000000E+00 0. -1.
      99925    2    1    2    0    0  0.37208919622E+01 -0.62839582197E+01 -0.28243402781E+03  0.38602748248E+03  0.26304924254E+03 0.  0.
         25    1    3    3    0    0  0.26346300174E+02  0.22746955463E+02 -0.16957741626E+03  0.21357799447E+03  0.12509000000E+03 0.  0.
         25    1    1    2    0    0 -0.37208919622E+01  0.62839582197E+01 -0.99033244022E+02  0.15971357077E+03  0.12509000000E+03 0.  0.
         25    1    3    3    0    0 -0.22625408211E+02 -0.29030913682E+02 -0.11285661155E+03  0.17244948801E+03  0.12509000000E+03 0.  0.
<mgrwt>
<rscale>  2 0.39027685E+03</rscale>
<asrwt>0</asrwt>
<pdfrwt beam="1">  1       21 0.12078954E-01 0.39027685E+03</pdfrwt>
<pdfrwt beam="2">  1       21 0.68177083E-01 0.39027685E+03</pdfrwt>
<totfact> 0.10750045E+05</totfact>
</mgrwt>
</event>
<event>
 6    0  0.1539497E-004  0.4028615E+03  0.7546771E-02  0.1042793E+00
         21   -1    0    0  502  501  0.00000000000E+00  0.00000000000E+00  0.16690807633E+03  0.16690807633E+03  0.00000000000E+00 0.  1.
         21   -1    0    0  501  502 -0.00000000000E+00 -0.00000000000E+00 -0.24309397468E+03  0.24309397468E+03  0.00000000000E+00 0.  1.
      99925    2    1    2    0    0  0.36690162071E+02  0.28284137990E+02 -0.71282031260E+02  0.27651903162E+03  0.26312636966E+03 0.  0.
         25    1    3    3    0    0  0.18371867480E+02 -0.21638094610E+02 -0.14049546644E+02  0.12903732217E+03  0.12509000000E+03 0.  0.
         25    1    3    3    0    0  0.18318294591E+02  0.49922232600E+02 -0.57232484616E+02  0.14748170944E+03  0.12509000000E+03 0.  0.
         25    1    1    2    0    0 -0.36690162071E+02 -0.28284137990E+02 -0.49038670849E+01  0.13348301940E+03  0.12509000000E+03 0.  0.
<mgrwt>
<rscale>  2 0.40286150E+03</rscale>
<asrwt>0</asrwt>
<pdfrwt beam="1">  1       21 0.24545306E-01 0.40286150E+03</pdfrwt>
<pdfrwt beam="2">  1       21 0.35749113E-01 0.40286150E+03</pdfrwt>
<totfact> 0.11167262E+05</totfact>
</mgrwt>
</event>
<event>
 6    0  0.1539497E-004  0.4056498E+03  0.7546771E-02  0.1041841E+00
         21   -1    0    0  502  501  0.00000000000E+00  0.00000000000E+00  0.14474350601E+04  0.14474350601E+04  0.00000000000E+00 0.  1.
         21   -1    0    0  501  502 -0.00000000000E+00 -0.00000000000E+00 -0.28421273394E+02  0.28421273394E+02  0.00000000000E+00 0.  1.
      99925    2    1    2    0    0 -0.25618836463E+02  0.18265423890E+01  0.76152906970E+03  0.80608523660E+03  0.26303464340E+03 0.  0.
         25    1    1    2    0    0  0.25618836463E+02 -0.18265423890E+01  0.65748471698E+03  0.66977109687E+03  0.12509000000E+03 0.  0.
         25    1    3    3    0    0 -0.78363732789E+01  0.26210510017E+02  0.47559023997E+03  0.49252612524E+03  0.12509000000E+03 0.  0.
         25    1    3    3    0    0 -0.17782463184E+02 -0.24383967628E+02  0.28593882973E+03  0.31355911136E+03  0.12509000000E+03 0.  0.
<mgrwt>
<rscale>  2 0.40564984E+03</rscale>
<asrwt>0</asrwt>
<pdfrwt beam="1">  1       21 0.21285805E+00 0.40564984E+03</pdfrwt>
<pdfrwt beam="2">  1       21 0.41796000E-02 0.40564984E+03</pdfrwt>
<totfact> 0.36488647E+04</totfact>
</mgrwt>
</event>
<event>
 6    0  0.1539497E-004  0.4732229E+03  0.7546771E-02  0.1021014E+00
         21   -1    0    0  502  501  0.00000000000E+00  0.00000000000E+00  0.21211016986E+03  0.21211016986E+03  0.00000000000E+00 0. -1.
         21   -1    0    0  501  502 -0.00000000000E+00 -0.00000000000E+00 -0.26394292187E+03  0.26394292187E+03  0.00000000000E+00 0. -1.
      99925    2    1    2    0    0  0.10640832251E+03 -0.71582732802E+02 -0.50365975226E+02  0.29689819152E+03  0.26299236858E+03 0.  0.
         25    1    3    3    0    0  0.20838293423E+02 -0.29689246571E+02  0.46073062933E+01  0.13032429246E+03  0.12509000000E+03 0.  0.
         25    1    3    3    0    0  0.85570029085E+02 -0.41893486231E+02 -0.54973281519E+02  0.16657389906E+03  0.12509000000E+03 0.  0.
         25    1    1    2    0    0 -0.10640832251E+03  0.71582732802E+02 -0.14667767919E+01  0.17915490021E+03  0.12509000000E+03 0.  0.
<mgrwt>
<rscale>  2 0.47322290E+03</rscale>
<asrwt>0</asrwt>
<pdfrwt beam="1">  1       21 0.31192672E-01 0.47322290E+03</pdfrwt>
<pdfrwt beam="2">  1       21 0.38815135E-01 0.47322290E+03</pdfrwt>
<totfact> 0.58110502E+04</totfact>
</mgrwt>
</event>
<event>
 6    0  0.1539497E-004  0.4275970E+03  0.7546771E-02  0.1034622E+00
         21   -1    0    0  502  501  0.00000000000E+00  0.00000000000E+00  0.47328261380E+03  0.47328261380E+03  0.00000000000E+00 0.  1.
         21   -1    0    0  501  502 -0.00000000000E+00 -0.00000000000E+00 -0.96580324925E+02  0.96580324925E+02  0.00000000000E+00 0.  1.
      99925    2    1    2    0    0  0.95022939060E+01  0.82012281713E+02  0.27103140109E+03  0.38647768150E+03  0.26285104143E+03 0.  0.
         25    1    3    3    0    0  0.26684100248E+02  0.70035055695E+02  0.11706731140E+03  0.18700057147E+03  0.12509000000E+03 0.  0.
         25    1    3    3    0    0 -0.17181806342E+02  0.11977226018E+02  0.15396408969E+03  0.19947711003E+03  0.12509000000E+03 0.  0.
         25    1    1    2    0    0 -0.95022939060E+01 -0.82012281713E+02  0.10567088779E+03  0.18338525723E+03  0.12509000000E+03 0.  0.
<mgrwt>
<rscale>  2 0.42759695E+03</rscale>
<asrwt>0</asrwt>
<pdfrwt beam="1">  1       21 0.69600383E-01 0.42759695E+03</pdfrwt>
<pdfrwt beam="2">  1       21 0.14202989E-01 0.42759695E+03</pdfrwt>
<totfact> 0.75687633E+04</totfact>
</mgrwt>
</event>
<event>
 6    0  0.1539497E-004  0.4707060E+03  0.7546771E-02  0.1021721E+00
         21   -1    0    0  502  501  0.00000000000E+00  0.00000000000E+00  0.27091603079E+03  0.27091603079E+03  0.00000000000E+00 0.  1.
         21   -1    0    0  501  502 -0.00000000000E+00 -0.00000000000E+00 -0.20445827578E+03  0.20445827578E+03  0.00000000000E+00 0.  1.
      99925    2    1    2    0    0  0.10293939800E+03 -0.73608821388E+02  0.26686577957E+02  0.29304484414E+03  0.26296069856E+03 0.  0.
         25    1    3    3    0    0  0.63734200226E+02 -0.74151608955E+02  0.31502322171E+02  0.16186541876E+03  0.12509000000E+03 0.  0.
         25    1    3    3    0    0  0.39205197770E+02  0.54278756679E+00 -0.48157442146E+01  0.13117942538E+03  0.12509000000E+03 0.  0.
         25    1    1    2    0    0 -0.10293939800E+03  0.73608821388E+02  0.39771177047E+02  0.18232946243E+03  0.12509000000E+03 0.  0.
<mgrwt>
<rscale>  2 0.47070596E+03</rscale>
<asrwt>0</asrwt>
<pdfrwt beam="1">  1       21 0.39840593E-01 0.47070596E+03</pdfrwt>
<pdfrwt beam="2">  1       21 0.30067393E-01 0.47070596E+03</pdfrwt>
<totfact> 0.59291263E+04</totfact>
</mgrwt>
</event>
<event>
 6    0  0.1539497E-004  0.4203096E+03  0.7546771E-02  0.1036966E+00
         21   -1    0    0  502  501  0.00000000000E+00  0.00000000000E+00  0.75389736973E+02  0.75389736973E+02  0.00000000000E+00 0. -1.
         21   -1    0    0  501  502 -0.00000000000E+00 -0.00000000000E+00 -0.58582291455E+03  0.58582291455E+03  0.00000000000E+00 0. -1.
      99925    2    1    2    0    0  0.65543188113E+02  0.95336930585E+01 -0.27296050674E+03  0.38475726940E+03  0.26295230994E+03 0.  0.
         25    1    1    2    0    0 -0.65543188113E+02 -0.95336930585E+01 -0.23747267084E+03  0.27645538213E+03  0.12509000000E+03 0.  0.
         25    1    3    3    0    0  0.25742956641E+02  0.12475587219E+02 -0.19057412802E+03  0.22974844170E+03  0.12509000000E+03 0.  0.
         25    1    3    3    0    0  0.39800231473E+02 -0.29418941608E+01 -0.82386378725E+02  0.15500882770E+03  0.12509000000E+03 0.  0.
<mgrwt>
<rscale>  2 0.42030958E+03</rscale>
<asrwt>0</asrwt>
<pdfrwt beam="1">  1       21 0.11086726E-01 0.42030958E+03</pdfrwt>
<pdfrwt beam="2">  1       21 0.86150430E-01 0.42030958E+03</pdfrwt>
<totfact> 0.73077712E+04</totfact>
</mgrwt>
</event>
<event>
 6    0  0.1539497E-004  0.4370146E+03  0.7546771E-02  0.1031667E+00
         21   -1    0    0  502  501  0.00000000000E+00  0.00000000000E+00  0.14570078850E+03  0.14570078850E+03  0.00000000000E+00 0. -1.
         21   -1    0    0  501  502 -0.00000000000E+00 -0.00000000000E+00 -0.32769518106E+03  0.32769518106E+03  0.00000000000E+00 0. -1.
      99925    2    1    2    0    0  0.18090188287E+02  0.92119905952E+02 -0.13508829219E+03  0.31011393646E+03  0.26288490811E+03 0.  0.
         25    1    1    2    0    0 -0.18090188287E+02 -0.92119905952E+02 -0.46906100373E+02  0.16328203311E+03  0.12509000000E+03 0.  0.
         25    1    3    3    0    0  0.26976501575E+02  0.55578340789E+02 -0.30569538231E+02  0.14282397687E+03  0.12509000000E+03 0.  0.
         25    1    3    3    0    0 -0.88863132874E+01  0.36541565163E+02 -0.10451875396E+03  0.16728995958E+03  0.12509000000E+03 0.  0.
<mgrwt>
<rscale>  2 0.43701463E+03</rscale>
<asrwt>0</asrwt>
<pdfrwt beam="1">  1       21 0.21426587E-01 0.43701463E+03</pdfrwt>
<pdfrwt beam="2">  1       21 0.48190467E-01 0.43701463E+03</pdfrwt>
<totfact> 0.77698252E+04</totfact>
</mgrwt>
</event>
<event>
 6    0  0.1539497E-004  0.4669873E+03  0.7546771E-02  0.1022774E+00
         21   -1    0    0  502  501  0.00000000000E+00  0.00000000000E+00  0.57574433146E+02  0.57574433146E+02  0.00000000000E+00 0.  1.
         21   -1    0    0  501  502 -0.00000000000E+00 -0.00000000000E+00 -0.94693566386E+03  0.94693566386E+03  0.00000000000E+00 0.  1.
      99925    2    1    2    0    0  0.11266160360E+03  0.45169375686E+02 -0.60924344379E+03  0.67459133113E+03  0.26298855643E+03 0.  0.
         25    1    3    3    0    0  0.76711074910E+02  0.59269995908E+02 -0.31407567127E+03  0.35169383960E+03  0.12509000000E+03 0.  0.
         25    1    1    2    0    0 -0.11266160360E+03 -0.45169375686E+02 -0.28011778692E+03  0.32991876587E+03  0.12509000000E+03 0.  0.
         25    1    3    3    0    0  0.35950528685E+02 -0.14100620222E+02 -0.29516777252E+03  0.32289749154E+03  0.12509000000E+03 0.  0.
<mgrwt>
<rscale>  2 0.46698730E+03</rscale>
<asrwt>0</asrwt>
<pdfrwt beam="1">  1       21 0.84668290E-02 0.46698730E+03</pdfrwt>
<pdfrwt beam="2">  1       21 0.13925523E+00 0.46698730E+03</pdfrwt>
<totfact> 0.35545787E+04</totfact>
</mgrwt>
</event>
<event>
 6    0  0.1539497E-004  0.4881007E+03  0.7546771E-02  0.1016932E+00
         21   -1    0    0  502  501  0.00000000000E+00  0.00000000000E+00  0.64319989539E+03  0.64319989539E+03  0.00000000000E+00 0.  1.
         21   -1    0    0  501  502 -0.00000000000E+00 -0.00000000000E+00 -0.92600427567E+02  0.92600427567E+02  0.00000000000E+00 0.  1.
      99925    2    1    2    0    0  0.97544909057E+00  0.12234343377E+03  0.44605671425E+03  0.53197303649E+03  0.26279241224E+03 0.  0.
         25    1    1    2    0    0 -0.97544909057E+00 -0.12234343377E+03  0.10454275357E+03  0.20382728647E+03  0.12509000000E+03 0.  0.
         25    1    3    3    0    0 -0.11362535280E+02  0.73291983509E+02  0.16326324860E+03  0.21863947150E+03  0.12509000000E+03 0.  0.
         25    1    3    3    0    0  0.12337984370E+02  0.49051450256E+02  0.28279346565E+03  0.31333356498E+03  0.12509000000E+03 0.  0.
<mgrwt>
<rscale>  2 0.48810075E+03</rscale>
<asrwt>0</asrwt>
<pdfrwt beam="1">  1       21 0.94588218E-01 0.48810075E+03</pdfrwt>
<pdfrwt beam="2">  1       21 0.13617710E-01 0.48810075E+03</pdfrwt>
<totfact> 0.39630991E+04</totfact>
</mgrwt>
</event>
<event>
 6    0  0.1539497E-004  0.4670660E+03  0.7546771E-02  0.1022752E+00
         21   -1    0    0  502  501  0.00000000000E+00  0.00000000000E+00  0.49490141710E+02  0.49490141710E+02  0.00000000000E+00 0. -1.
         21   -1    0    0  501  502 -0.00000000000E+00 -0.00000000000E+00 -0.11019903513E+04  0.11019903513E+04  0.00000000000E+00 0. -1.
      99925    2    1    2    0    0  0.17160569419E+02  0.12175481941E+03 -0.69742364588E+03  0.75544312686E+03  0.26301303180E+03 0.  0.
         25    1    3    3    0    0  0.17881616305E+02  0.56295978723E+02 -0.44755348660E+03  0.46844489633E+03  0.12509000000E+03 0.  0.
         25    1    1    2    0    0 -0.17160569419E+02 -0.12175481941E+03 -0.35507656372E+03  0.39603736616E+03  0.12509000000E+03 0.  0.
         25    1    3    3    0    0 -0.72104688670E+00  0.65458840688E+02 -0.24987015927E+03  0.28699823053E+03  0.12509000000E+03 0.  0.
<mgrwt>
<rscale>  2 0.46706599E+03</rscale>
<asrwt>0</asrwt>
<pdfrwt beam="1">  1       21 0.72779619E-02 0.46706599E+03</pdfrwt>
<pdfrwt beam="2">  1       21 0.16205741E+00 0.46706599E+03</pdfrwt>
<totfact> 0.30739004E+04</totfact>
</mgrwt>
</event>
<event>
 6    0  0.1539497E-004  0.4075385E+03  0.7546771E-02  0.1041200E+00
         21   -1    0    0  502  501  0.00000000000E+00  0.00000000000E+00  0.19403084209E+03  0.19403084209E+03  0.00000000000E+00 0. -1.
         21   -1    0    0  501  502 -0.00000000000E+00 -0.00000000000E+00 -0.21399644899E+03  0.21399644899E+03  0.00000000000E+00 0. -1.
      99925    2    1    2    0    0  0.41395842062E+02 -0.40123224355E+02 -0.28693842522E+01  0.26923508020E+03  0.26297491548E+03 0.  0.
         25    1    3    3    0    0 -0.16029783281E+02 -0.16377378713E+02 -0.19183733640E+02  0.12861063806E+03  0.12509000000E+03 0.  0.
         25    1    1    2    0    0 -0.41395842062E+02  0.40123224355E+02 -0.17096222643E+02  0.13879221088E+03  0.12509000000E+03 0.  0.
         25    1    3    3    0    0  0.57425625343E+02 -0.23745845642E+02  0.16314349387E+02  0.14062444214E+03  0.12509000000E+03 0.  0.
<mgrwt>
<rscale>  2 0.40753852E+03</rscale>
<asrwt>0</asrwt>
<pdfrwt beam="1">  1       21 0.28533948E-01 0.40753852E+03</pdfrwt>
<pdfrwt beam="2">  1       21 0.31470066E-01 0.40753852E+03</pdfrwt>
<totfact> 0.10739699E+05</totfact>
</mgrwt>
</event>
<event>
 6    0  0.1539497E-004  0.4034158E+03  0.7546771E-02  0.1042603E+00
         21   -1    0    0  502  501  0.00000000000E+00  0.00000000000E+00  0.80184532501E+03  0.80184532501E+03  0.00000000000E+00 0.  1.
         21   -1    0    0  501  502 -0.00000000000E+00 -0.00000000000E+00 -0.50740557645E+02  0.50740557645E+02  0.00000000000E+00 0.  1.
      99925    2    1    2    0    0  0.50248620331E+02 -0.10658110700E+02  0.50873400780E+03  0.57504379150E+03  0.26310939224E+03 0.  0.
         25    1    1    2    0    0 -0.50248620331E+02  0.10658110700E+02  0.24237075957E+03  0.27754209115E+03  0.12509000000E+03 0.  0.
         25    1    3    3    0    0 -0.34486676528E+00  0.25163242847E+02  0.26616023133E+03  0.29516450424E+03  0.12509000000E+03 0.  0.
         25    1    3    3    0    0  0.50593487096E+02 -0.35821353547E+02  0.24257377647E+03  0.27987928726E+03  0.12509000000E+03 0.  0.
<mgrwt>
<rscale>  2 0.40341581E+03</rscale>
<asrwt>0</asrwt>
<pdfrwt beam="1">  1       21 0.11791842E+00 0.40341581E+03</pdfrwt>
<pdfrwt beam="2">  1       21 0.74618472E-02 0.40341581E+03</pdfrwt>
<totfact> 0.69429413E+04</totfact>
</mgrwt>
</event>
<event>
 6    0  0.1539497E-004  0.4142538E+03  0.7546771E-02  0.1038953E+00
         21   -1    0    0  502  501  0.00000000000E+00  0.00000000000E+00  0.11338489641E+04  0.11338489641E+04  0.00000000000E+00 0. -1.
         21   -1    0    0  501  502 -0.00000000000E+00 -0.00000000000E+00 -0.37837103622E+02  0.37837103622E+02  0.00000000000E+00 0. -1.
      99925    2    1    2    0    0  0.35494691968E+01 -0.44600504895E+02  0.86468362479E+03  0.90492388057E+03  0.26307347809E+03 0.  0.
         25    1    3    3    0    0 -0.77286886147E+00 -0.51476438430E+02  0.35091938241E+03  0.37608821052E+03  0.12509000000E+03 0.  0.
         25    1    3    3    0    0  0.43223380582E+01  0.68759335352E+01  0.51376424238E+03  0.52883567005E+03  0.12509000000E+03 0.  0.
         25    1    1    2    0    0 -0.35494691968E+01  0.44600504895E+02  0.23132823568E+03  0.26676218714E+03  0.12509000000E+03 0.  0.
<mgrwt>
<rscale>  2 0.41425384E+03</rscale>
<asrwt>0</asrwt>
<pdfrwt beam="1">  1       21 0.16674247E+00 0.41425384E+03</pdfrwt>
<pdfrwt beam="2">  1       21 0.55642807E-02 0.41425384E+03</pdfrwt>
<totfact> 0.46032916E+04</totfact>
</mgrwt>
</event>
<event>
 6    0  0.1539497E-004  0.4001878E+03  0.7546771E-02  0.1043715E+00
         21   -1    0    0  502  501  0.00000000000E+00  0.00000000000E+00  0.52019957815E+03  0.52019957815E+03  0.00000000000E+00 0. -1.
         21   -1    0    0  501  502 -0.00000000000E+00 -0.00000000000E+00 -0.76965794884E+02  0.76965794884E+02  0.00000000000E+00 0. -1.
      99925    2    1    2    0    0 -0.39490411555E+02 -0.11513387495E+02  0.26584422344E+03  0.37624318145E+03  0.26304701055E+03 0.  0.
         25    1    1    2    0    0  0.39490411555E+02  0.11513387495E+02  0.17738955983E+03  0.22092219158E+03  0.12509000000E+03 0.  0.
         25    1    3    3    0    0 -0.53892405863E+02 -0.89246076376E+01  0.16977571319E+03  0.21784246813E+03  0.12509000000E+03 0.  0.
         25    1    3    3    0    0  0.14401994308E+02 -0.25887798578E+01  0.96068510250E+02  0.15840071333E+03  0.12509000000E+03 0.  0.
<mgrwt>
<rscale>  2 0.40018783E+03</rscale>
<asrwt>0</asrwt>
<pdfrwt beam="1">  1       21 0.76499936E-01 0.40018783E+03</pdfrwt>
<pdfrwt beam="2">  1       21 0.11318500E-01 0.40018783E+03</pdfrwt>
<totfact> 0.93056765E+04</totfact>
</mgrwt>
</event>
<event>
 6    0  0.1539497E-004  0.4116667E+03  0.7546771E-02  0.1039813E+00
         21   -1    0    0  502  501  0.00000000000E+00  0.00000000000E+00  0.46453525960E+02  0.46453525960E+02  0.00000000000E+00 0.  1.
         21   -1    0    0  501  502 -0.00000000000E+00 -0.00000000000E+00 -0.91203781206E+03  0.91203781206E+03  0.00000000000E+00 0.  1.
      99925    2    1    2    0    0  0.56282543088E+02  0.86432884247E+01 -0.64072771297E+03  0.69495686652E+03  0.26304108626E+03 0.  0.
         25    1    1    2    0    0 -0.56282543088E+02 -0.86432884247E+01 -0.22485657313E+03  0.26353447151E+03  0.12509000000E+03 0.  0.
         25    1    3    3    0    0  0.41910540340E+02  0.27825639365E+02 -0.40739434088E+03  0.42912517600E+03  0.12509000000E+03 0.  0.
         25    1    3    3    0    0  0.14372002748E+02 -0.19182350940E+02 -0.23333337209E+03  0.26583169052E+03  0.12509000000E+03 0.  0.
<mgrwt>
<rscale>  2 0.41166672E+03</rscale>
<asrwt>0</asrwt>
<pdfrwt beam="1">  1       21 0.68314012E-02 0.41166672E+03</pdfrwt>
<pdfrwt beam="2">  1       21 0.13412320E+00 0.41166672E+03</pdfrwt>
<totfact> 0.58136262E+04</totfact>
</mgrwt>
</event>
<event>
 6    0  0.1539497E-004  0.4240776E+03  0.7546771E-02  0.1035747E+00
         21   -1    0    0  502  501  0.00000000000E+00  0.00000000000E+00  0.67278152008E+03  0.67278152008E+03  0.00000000000E+00 0.  1.
         21   -1    0    0  501  502 -0.00000000000E+00 -0.00000000000E+00 -0.66827711888E+02  0.66827711888E+02  0.00000000000E+00 0.  1.
      99925    2    1    2    0    0  0.67367485478E+02  0.36244054379E+02  0.43805354890E+03  0.51669665999E+03  0.26312072735E+03 0.  0.
         25    1    1    2    0    0 -0.67367485478E+02 -0.36244054379E+02  0.16790025930E+03  0.22291257199E+03  0.12509000000E+03 0.  0.
         25    1    3    3    0    0  0.55070849878E+02  0.91688201640E+01  0.28919637087E+03  0.31999830436E+03  0.12509000000E+03 0.  0.
         25    1    3    3    0    0  0.12296635600E+02  0.27075234215E+02  0.14885717803E+03  0.19669835563E+03  0.12509000000E+03 0.  0.
<mgrwt>
<rscale>  2 0.42407759E+03</rscale>
<asrwt>0</asrwt>
<pdfrwt beam="1">  1       21 0.98938455E-01 0.42407759E+03</pdfrwt>
<pdfrwt beam="2">  1       21 0.98276051E-02 0.42407759E+03</pdfrwt>
<totfact> 0.65286203E+04</totfact>
</mgrwt>
</event>
<event>
 6    0  0.1539497E-004  0.4406347E+03  0.7546771E-02  0.1030552E+00
         21   -1    0    0  502  501  0.00000000000E+00  0.00000000000E+00  0.12719102781E+03  0.12719102781E+03  0.00000000000E+00 0.  1.
         21   -1    0    0  501  502 -0.00000000000E+00 -0.00000000000E+00 -0.38162856825E+03  0.38162856825E+03  0.00000000000E+00 0.  1.
      99925    2    1    2    0    0  0.55628558583E+02 -0.38034163304E+02 -0.78212442037E+02  0.28244837989E+03  0.26290448285E+03 0.  0.
         25    1    1    2    0    0 -0.55628558583E+02  0.38034163304E+02 -0.17622509840E+03  0.22637121618E+03  0.12509000000E+03 0.  0.
         25    1    3    3    0    0  0.61267358471E+02 -0.30905668178E+02 -0.19624240452E+02  0.14401898643E+03  0.12509000000E+03 0.  0.
         25    1    3    3    0    0 -0.56387998884E+01 -0.71284951267E+01 -0.58588201585E+02  0.13842939345E+03  0.12509000000E+03 0.  0.
<mgrwt>
<rscale>  2 0.44063468E+03</rscale>
<asrwt>0</asrwt>
<pdfrwt beam="1">  1       21 0.18704563E-01 0.44063468E+03</pdfrwt>
<pdfrwt beam="2">  1       21 0.56121848E-01 0.44063468E+03</pdfrwt>
<totfact> 0.72582021E+04</totfact>
</mgrwt>
</event>
<event>
 6    0  0.1919334E-004  0.4134585E+03  0.7546771E-02  0.1039217E+00
         21   -1    0    0  502  501  0.00000000000E+00  0.00000000000E+00  0.18473464626E+03  0.18473464626E+03  0.00000000000E+00 0. -1.
         21   -1    0    0  501  502 -0.00000000000E+00 -0.00000000000E+00 -0.23134253148E+03  0.23134253148E+03  0.00000000000E+00 0. -1.
      99925    2    1    2    0    0  0.36799899742E+02 -0.27475157893E+02  0.22106787672E+02  0.26614942416E+03  0.26122344650E+03 0.  0.
         25    1    3    3    0    0  0.84106876660E+00  0.18119198793E+02 -0.49250235120E+00  0.12639922239E+03  0.12509000000E+03 0.  0.
         25    1    3    3    0    0  0.35958830975E+02 -0.45594356686E+02  0.22599290023E+02  0.13975020178E+03  0.12509000000E+03 0.  0.
         25    1    1    2    0    0 -0.36799899742E+02  0.27475157893E+02 -0.68714672891E+02  0.14992775358E+03  0.12509000000E+03 0.  0.
<mgrwt>
<rscale>  2 0.41345849E+03</rscale>
<asrwt>0</asrwt>
<pdfrwt beam="1">  1       21 0.27166860E-01 0.41345849E+03</pdfrwt>
<pdfrwt beam="2">  1       21 0.34020961E-01 0.41345849E+03</pdfrwt>
<totfact> 0.10106397E+05</totfact>
</mgrwt>
</event>
<event>
 6    0  0.1539497E-004  0.4557066E+03  0.7546771E-02  0.1026034E+00
         21   -1    0    0  502  501  0.00000000000E+00  0.00000000000E+00  0.92909565139E+02  0.92909565139E+02  0.00000000000E+00 0.  1.
         21   -1    0    0  501  502 -0.00000000000E+00 -0.00000000000E+00 -0.55879211867E+03  0.55879211867E+03  0.00000000000E+00 0.  1.
      99925    2    1    2    0    0 -0.62281578551E+02  0.95153818397E+02 -0.28896263437E+03  0.40699489993E+03  0.26308211707E+03 0.  0.
         25    1    1    2    0    0  0.62281578551E+02 -0.95153818397E+02 -0.17691991916E+03  0.24470678389E+03  0.12509000000E+03 0.  0.
         25    1    3    3    0    0 -0.63617253443E+00  0.50968320847E+02 -0.17766107267E+03  0.22317961217E+03  0.12509000000E+03 0.  0.
         25    1    3    3    0    0 -0.61645406017E+02  0.44185497551E+02 -0.11130156170E+03  0.18381528776E+03  0.12509000000E+03 0.  0.
<mgrwt>
<rscale>  2 0.45570663E+03</rscale>
<asrwt>0</asrwt>
<pdfrwt beam="1">  1       21 0.13663171E-01 0.45570663E+03</pdfrwt>
<pdfrwt beam="2">  1       21 0.82175312E-01 0.45570663E+03</pdfrwt>
<totfact> 0.55294691E+04</totfact>
</mgrwt>
</event>
<event>
 6    0  0.1539497E-004  0.4884228E+03  0.7546771E-02  0.1016846E+00
         21   -1    0    0  502  501  0.00000000000E+00  0.00000000000E+00  0.78226867329E+02  0.78226867329E+02  0.00000000000E+00 0. -1.
         21   -1    0    0  501  502 -0.00000000000E+00 -0.00000000000E+00 -0.76238791746E+03  0.76238791746E+03  0.00000000000E+00 0. -1.
      99925    2    1    2    0    0  0.13835772752E+03  0.14222711342E+02 -0.46916384266E+03  0.55562977886E+03  0.26318167417E+03 0.  0.
         25    1    3    3    0    0  0.92575576055E+02  0.41164772678E+02 -0.27455291666E+03  0.31826339397E+03  0.12509000000E+03 0.  0.
         25    1    3    3    0    0  0.45782151463E+02 -0.26942061336E+02 -0.19461092599E+03  0.23736638489E+03  0.12509000000E+03 0.  0.
         25    1    1    2    0    0 -0.13835772752E+03 -0.14222711342E+02 -0.21499720747E+03  0.28498500593E+03  0.12509000000E+03 0.  0.
<mgrwt>
<rscale>  2 0.48842284E+03</rscale>
<asrwt>0</asrwt>
<pdfrwt beam="1">  1       21 0.11503952E-01 0.48842284E+03</pdfrwt>
<pdfrwt beam="2">  1       21 0.11211586E+00 0.48842284E+03</pdfrwt>
<totfact> 0.35574711E+04</totfact>
</mgrwt>
</event>
<event>
 6    0  0.1539497E-004  0.3942072E+03  0.7546771E-02  0.1045804E+00
         21   -1    0    0  502  501  0.00000000000E+00  0.00000000000E+00  0.12650621901E+04  0.12650621901E+04  0.00000000000E+00 0.  1.
         21   -1    0    0  501  502 -0.00000000000E+00 -0.00000000000E+00 -0.30709820309E+02  0.30709820309E+02  0.00000000000E+00 0.  1.
      99925    2    1    2    0    0 -0.13337377579E+02 -0.10812482532E+02  0.91997904961E+03  0.95699053518E+03  0.26301071704E+03 0.  0.
         25    1    3    3    0    0 -0.11157920691E+02  0.33321779316E+02  0.41415963380E+03  0.43406284169E+03  0.12509000000E+03 0.  0.
         25    1    1    2    0    0  0.13337377579E+02  0.10812482532E+02  0.31437332020E+03  0.33878147525E+03  0.12509000000E+03 0.  0.
         25    1    3    3    0    0 -0.21794568888E+01 -0.44134261848E+02  0.50581941582E+03  0.52292769349E+03  0.12509000000E+03 0.  0.
<mgrwt>
<rscale>  2 0.39420722E+03</rscale>
<asrwt>0</asrwt>
<pdfrwt beam="1">  1       21 0.18603852E+00 0.39420722E+03</pdfrwt>
<pdfrwt beam="2">  1       21 0.45161509E-02 0.39420722E+03</pdfrwt>
<totfact> 0.48389988E+04</totfact>
</mgrwt>
</event>
<event>
 6    0  0.1539497E-004  0.4073548E+03  0.7546771E-02  0.1041262E+00
         21   -1    0    0  502  501  0.00000000000E+00  0.00000000000E+00  0.18138686785E+03  0.18138686785E+03  0.00000000000E+00 0. -1.
         21   -1    0    0  501  502 -0.00000000000E+00 -0.00000000000E+00 -0.22870721582E+03  0.22870721582E+03  0.00000000000E+00 0. -1.
      99925    2    1    2    0    0  0.22144280977E+02 -0.53027974299E+02 -0.21667225652E+02  0.27006577931E+03  0.26298996416E+03 0.  0.
         25    1    3    3    0    0 -0.28702013313E+02 -0.34497657180E+02 -0.11465576677E+02  0.13338988518E+03  0.12509000000E+03 0.  0.
         25    1    3    3    0    0  0.50846294289E+02 -0.18530317119E+02 -0.10201648975E+02  0.13667589413E+03  0.12509000000E+03 0.  0.
         25    1    1    2    0    0 -0.22144280977E+02  0.53027974299E+02 -0.25653122312E+02  0.14002830436E+03  0.12509000000E+03 0.  0.
<mgrwt>
<rscale>  2 0.40735481E+03</rscale>
<asrwt>0</asrwt>
<pdfrwt beam="1">  1       21 0.26674540E-01 0.40735481E+03</pdfrwt>
<pdfrwt beam="2">  1       21 0.33633414E-01 0.40735481E+03</pdfrwt>
<totfact> 0.10731937E+05</totfact>
</mgrwt>
</event>
<event>
 6    0  0.1539497E-004  0.3901348E+03  0.7546771E-02  0.1047250E+00
         21   -1    0    0  502  501  0.00000000000E+00  0.00000000000E+00  0.21112729625E+03  0.21112729625E+03  0.00000000000E+00 0.  1.
         21   -1    0    0  501  502 -0.00000000000E+00 -0.00000000000E+00 -0.18022910663E+03  0.18022910663E+03  0.00000000000E+00 0.  1.
      99925    2    1    2    0    0  0.18084734126E+02  0.51633998841E+01  0.21780499017E+02  0.26453227785E+03  0.26296238815E+03 0.  0.
         25    1    3    3    0    0 -0.27434698217E+02  0.91928566259E+01  0.27216729175E+02  0.13124568460E+03  0.12509000000E+03 0.  0.
         25    1    3    3    0    0  0.45519432343E+02 -0.40294567419E+01 -0.54362301580E+01  0.13328659325E+03  0.12509000000E+03 0.  0.
         25    1    1    2    0    0 -0.18084734126E+02 -0.51633998841E+01  0.91176906060E+01  0.12682412503E+03  0.12509000000E+03 0.  0.
<mgrwt>
<rscale>  2 0.39013477E+03</rscale>
<asrwt>0</asrwt>
<pdfrwt beam="1">  1       21 0.31048132E-01 0.39013477E+03</pdfrwt>
<pdfrwt beam="2">  1       21 0.26504280E-01 0.39013477E+03</pdfrwt>
<totfact> 0.12794911E+05</totfact>
</mgrwt>
</event>
<event>
 6    0  0.1539497E-004  0.4343245E+03  0.7546771E-02  0.1032503E+00
         21   -1    0    0  502  501  0.00000000000E+00  0.00000000000E+00  0.15438300605E+03  0.15438300605E+03  0.00000000000E+00 0. -1.
         21   -1    0    0  501  502 -0.00000000000E+00 -0.00000000000E+00 -0.30547040187E+03  0.30547040187E+03  0.00000000000E+00 0. -1.
      99925    2    1    2    0    0 -0.34973192959E+02 -0.85361730603E+02 -0.10320683533E+03  0.29721944638E+03  0.26301710813E+03 0.  0.
         25    1    3    3    0    0 -0.35802039191E+02 -0.10271566565E+02 -0.29722943177E+02  0.13385907717E+03  0.12509000000E+03 0.  0.
         25    1    1    2    0    0  0.34973192959E+02  0.85361730603E+02 -0.47880560489E+02  0.16263396155E+03  0.12509000000E+03 0.  0.
         25    1    3    3    0    0  0.82884623192E+00 -0.75090164038E+02 -0.73483892153E+02  0.16336036921E+03  0.12509000000E+03 0.  0.
<mgrwt>
<rscale>  2 0.43432448E+03</rscale>
<asrwt>0</asrwt>
<pdfrwt beam="1">  1       21 0.22703384E-01 0.43432448E+03</pdfrwt>
<pdfrwt beam="2">  1       21 0.44922117E-01 0.43432448E+03</pdfrwt>
<totfact> 0.80636724E+04</totfact>
</mgrwt>
</event>
<event>
 6    0  0.1539497E-004  0.4667774E+03  0.7546771E-02  0.1022834E+00
         21   -1    0    0  502  501  0.00000000000E+00  0.00000000000E+00  0.12617034040E+04  0.12617034040E+04  0.00000000000E+00 0. -1.
         21   -1    0    0  501  502 -0.00000000000E+00 -0.00000000000E+00 -0.43172015157E+02  0.43172015157E+02  0.00000000000E+00 0. -1.
      99925    2    1    2    0    0 -0.11320747529E+03  0.79692155805E+01  0.61955973130E+03  0.68254592805E+03  0.26293581421E+03 0.  0.
         25    1    3    3    0    0 -0.37618567355E+02  0.15915207241E+02  0.37630492781E+03  0.39864941643E+03  0.12509000000E+03 0.  0.
         25    1    3    3    0    0 -0.75588907938E+02 -0.79459916607E+01  0.24325480349E+03  0.28389651162E+03  0.12509000000E+03 0.  0.
         25    1    1    2    0    0  0.11320747529E+03 -0.79692155805E+01  0.59897165755E+03  0.62232949111E+03  0.12509000000E+03 0.  0.
<mgrwt>
<rscale>  2 0.46677737E+03</rscale>
<asrwt>0</asrwt>
<pdfrwt beam="1">  1       21 0.18554459E+00 0.46677737E+03</pdfrwt>
<pdfrwt beam="2">  1       21 0.63488266E-02 0.46677737E+03</pdfrwt>
<totfact> 0.26464301E+04</totfact>
</mgrwt>
</event>
<event>
 6    0  0.1539497E-004  0.4653884E+03  0.7546771E-02  0.1023230E+00
         21   -1    0    0  502  501  0.00000000000E+00  0.00000000000E+00  0.16912645692E+03  0.16912645692E+03  0.00000000000E+00 0. -1.
         21   -1    0    0  501  502 -0.00000000000E+00 -0.00000000000E+00 -0.32015449003E+03  0.32015449003E+03  0.00000000000E+00 0. -1.
      99925    2    1    2    0    0  0.18180547633E+02 -0.10726689972E+03 -0.34808189279E+02  0.28681791258E+03  0.26308968974E+03 0.  0.
         25    1    3    3    0    0 -0.75251233359E+01 -0.13535780553E+02 -0.95464428133E+01  0.12640604221E+03  0.12509000000E+03 0.  0.
         25    1    3    3    0    0  0.25705670969E+02 -0.93731119168E+02 -0.25261746466E+02  0.16041187037E+03  0.12509000000E+03 0.  0.
         25    1    1    2    0    0 -0.18180547633E+02  0.10726689972E+03 -0.11621984384E+03  0.20246303438E+03  0.12509000000E+03 0.  0.
<mgrwt>
<rscale>  2 0.46538842E+03</rscale>
<asrwt>0</asrwt>
<pdfrwt beam="1">  1       21 0.24871538E-01 0.46538842E+03</pdfrwt>
<pdfrwt beam="2">  1       21 0.47081543E-01 0.46538842E+03</pdfrwt>
<totfact> 0.60855170E+04</totfact>
</mgrwt>
</event>
<event>
 6    0  0.1539497E-004  0.4030802E+03  0.7546771E-02  0.1042718E+00
         21   -1    0    0  502  501  0.00000000000E+00  0.00000000000E+00  0.40846251987E+02  0.40846251987E+02  0.00000000000E+00 0. -1.
         21   -1    0    0  501  502 -0.00000000000E+00 -0.00000000000E+00 -0.99442194710E+03  0.99442194710E+03  0.00000000000E+00 0. -1.
      99925    2    1    2    0    0 -0.40695580401E+02 -0.22270723842E+02 -0.58095679433E+03  0.63948483824E+03  0.26320704028E+03 0.  0.
         25    1    3    3    0    0  0.19491177931E+02 -0.18281179844E+02 -0.29768350372E+03  0.32400167289E+03  0.12509000000E+03 0.  0.
         25    1    1    2    0    0  0.40695580401E+02  0.22270723842E+02 -0.37261890078E+03  0.39578336085E+03  0.12509000000E+03 0.  0.
         25    1    3    3    0    0 -0.60186758333E+02 -0.39895439977E+01 -0.28327329061E+03  0.31548316534E+03  0.12509000000E+03 0.  0.
<mgrwt>
<rscale>  2 0.40308019E+03</rscale>
<asrwt>0</asrwt>
<pdfrwt beam="1">  1       21 0.60068023E-02 0.40308019E+03</pdfrwt>
<pdfrwt beam="2">  1       21 0.14623851E+00 0.40308019E+03</pdfrwt>
<totfact> 0.58002561E+04</totfact>
</mgrwt>
</event>
<event>
 6    0  0.1539497E-004  0.3967863E+03  0.7546771E-02  0.1044898E+00
         21   -1    0    0  502  501  0.00000000000E+00  0.00000000000E+00  0.39052921602E+02  0.39052921602E+02  0.00000000000E+00 0.  1.
         21   -1    0    0  501  502 -0.00000000000E+00 -0.00000000000E+00 -0.10078589243E+04  0.10078589243E+04  0.00000000000E+00 0.  1.
      99925    2    1    2    0    0 -0.13706722821E+02 -0.39754096368E+01 -0.56287362595E+03  0.62190328043E+03  0.26407062178E+03 0.  0.
         25    1    1    2    0    0  0.13706722821E+02  0.39754096368E+01 -0.40593237676E+03  0.42500856548E+03  0.12509000000E+03 0.  0.
         25    1    3    3    0    0 -0.62448991935E+01  0.65412732004E+01 -0.37841936089E+03  0.39866089326E+03  0.12509000000E+03 0.  0.
         25    1    3    3    0    0 -0.74618236275E+01 -0.10516682837E+02 -0.18445426506E+03  0.22324238717E+03  0.12509000000E+03 0.  0.
<mgrwt>
<rscale>  2 0.39678627E+03</rscale>
<asrwt>0</asrwt>
<pdfrwt beam="1">  1       21 0.57430774E-02 0.39678627E+03</pdfrwt>
<pdfrwt beam="2">  1       21 0.14821453E+00 0.39678627E+03</pdfrwt>
<totfact> 0.60586700E+04</totfact>
</mgrwt>
</event>
<event>
 6    0  0.1539497E-004  0.4009259E+03  0.7546771E-02  0.1043460E+00
         21   -1    0    0  502  501  0.00000000000E+00  0.00000000000E+00  0.40278615153E+03  0.40278615153E+03  0.00000000000E+00 0. -1.
         21   -1    0    0  501  502 -0.00000000000E+00 -0.00000000000E+00 -0.99768561445E+02  0.99768561445E+02  0.00000000000E+00 0. -1.
      99925    2    1    2    0    0 -0.40908551614E+02 -0.16455940512E+02  0.22337405425E+03  0.34784560376E+03  0.26297583229E+03 0.  0.
         25    1    3    3    0    0 -0.27821224053E+02 -0.48171367333E+02  0.11753999761E+03  0.18043741374E+03  0.12509000000E+03 0.  0.
         25    1    1    2    0    0  0.40908551614E+02  0.16455940512E+02  0.79643535828E+02  0.15470910921E+03  0.12509000000E+03 0.  0.
         25    1    3    3    0    0 -0.13087327561E+02  0.31715426821E+02  0.10583405664E+03  0.16740819002E+03  0.12509000000E+03 0.  0.
<mgrwt>
<rscale>  2 0.40092590E+03</rscale>
<asrwt>0</asrwt>
<pdfrwt beam="1">  1       21 0.59233257E-01 0.40092590E+03</pdfrwt>
<pdfrwt beam="2">  1       21 0.14671847E-01 0.40092590E+03</pdfrwt>
<totfact> 0.10243811E+05</totfact>
</mgrwt>
</event>
<event>
 6    0  0.1539497E-004  0.4486800E+03  0.7546771E-02  0.1028116E+00
         21   -1    0    0  502  501  0.00000000000E+00  0.00000000000E+00  0.17302201634E+03  0.17302201634E+03  0.00000000000E+00 0. -1.
         21   -1    0    0  501  502 -0.00000000000E+00 -0.00000000000E+00 -0.29087877217E+03  0.29087877217E+03  0.00000000000E+00 0. -1.
      99925    2    1    2    0    0  0.98969300549E+02  0.23438892698E+02 -0.10933046632E+03  0.30245572091E+03  0.26302472906E+03 0.  0.
         25    1    3    3    0    0  0.52210405479E+02  0.50873067309E+02 -0.68302799197E+02  0.16008365281E+03  0.12509000000E+03 0.  0.
         25    1    1    2    0    0 -0.98969300549E+02 -0.23438892698E+02 -0.85262895059E+01  0.16144506761E+03  0.12509000000E+03 0.  0.
         25    1    3    3    0    0  0.46758895070E+02 -0.27434174611E+02 -0.41027667128E+02  0.14237206810E+03  0.12509000000E+03 0.  0.
<mgrwt>
<rscale>  2 0.44867998E+03</rscale>
<asrwt>0</asrwt>
<pdfrwt beam="1">  1       21 0.25444414E-01 0.44867998E+03</pdfrwt>
<pdfrwt beam="2">  1       21 0.42776290E-01 0.44867998E+03</pdfrwt>
<totfact> 0.71405358E+04</totfact>
</mgrwt>
</event>
<event>
 6    0  0.1539497E-004  0.4327680E+03  0.7546771E-02  0.1032989E+00
         21   -1    0    0  502  501  0.00000000000E+00  0.00000000000E+00  0.31768581565E+03  0.31768581565E+03  0.00000000000E+00 0. -1.
         21   -1    0    0  501  502 -0.00000000000E+00 -0.00000000000E+00 -0.14738471448E+03  0.14738471448E+03  0.00000000000E+00 0. -1.
      99925    2    1    2    0    0  0.62898694177E+02 -0.47132248780E+02  0.60772974900E+02  0.28116399640E+03  0.26302498701E+03 0.  0.
         25    1    3    3    0    0  0.14305816583E+01 -0.47716762938E+02  0.43179370606E+02  0.14068014137E+03  0.12509000000E+03 0.  0.
         25    1    3    3    0    0  0.61468112518E+02  0.58451415815E+00  0.17593604294E+02  0.14048385503E+03  0.12509000000E+03 0.  0.
         25    1    1    2    0    0 -0.62898694177E+02  0.47132248780E+02  0.10952812627E+03  0.18390653373E+03  0.12509000000E+03 0.  0.
<mgrwt>
<rscale>  2 0.43276799E+03</rscale>
<asrwt>0</asrwt>
<pdfrwt beam="1">  1       21 0.46718502E-01 0.43276799E+03</pdfrwt>
<pdfrwt beam="2">  1       21 0.21674223E-01 0.43276799E+03</pdfrwt>
<totfact> 0.81215524E+04</totfact>
</mgrwt>
</event>
<event>
 6    0  0.1539497E-004  0.4206107E+03  0.7546771E-02  0.1036868E+00
         21   -1    0    0  502  501  0.00000000000E+00  0.00000000000E+00  0.14993188207E+03  0.14993188207E+03  0.00000000000E+00 0.  1.
         21   -1    0    0  501  502 -0.00000000000E+00 -0.00000000000E+00 -0.29498951266E+03  0.29498951266E+03  0.00000000000E+00 0.  1.
      99925    2    1    2    0    0 -0.35043027878E+02 -0.66439309260E+02 -0.11188470078E+03  0.29528801948E+03  0.26274442441E+03 0.  0.
         25    1    3    3    0    0 -0.17801862564E+02 -0.30162466205E+02 -0.12399901705E+02  0.13049117342E+03  0.12509000000E+03 0.  0.
         25    1    3    3    0    0 -0.17241165314E+02 -0.36276843055E+02 -0.99484799072E+02  0.16479684606E+03  0.12509000000E+03 0.  0.
         25    1    1    2    0    0  0.35043027878E+02  0.66439309260E+02 -0.33172929817E+02  0.14963337526E+03  0.12509000000E+03 0.  0.
<mgrwt>
<rscale>  2 0.42061066E+03</rscale>
<asrwt>0</asrwt>
<pdfrwt beam="1">  1       21 0.22048806E-01 0.42061066E+03</pdfrwt>
<pdfrwt beam="2">  1       21 0.43380811E-01 0.42061066E+03</pdfrwt>
<totfact> 0.92000894E+04</totfact>
</mgrwt>
</event>
<event>
 6    0  0.1539497E-004  0.4053853E+03  0.7546771E-02  0.1041931E+00
         21   -1    0    0  502  501  0.00000000000E+00  0.00000000000E+00  0.23491759912E+03  0.23491759912E+03  0.00000000000E+00 0.  1.
         21   -1    0    0  501  502 -0.00000000000E+00 -0.00000000000E+00 -0.17488821139E+03  0.17488821139E+03  0.00000000000E+00 0.  1.
      99925    2    1    2    0    0  0.50284027255E+02  0.19627815677E+02  0.51450301668E+02  0.27329631134E+03  0.26292585591E+03 0.  0.
         25    1    3    3    0    0  0.49759583971E+02 -0.21379766970E+02  0.34147531753E+02  0.14052285457E+03  0.12509000000E+03 0.  0.
         25    1    3    3    0    0  0.52444328442E+00  0.41007582647E+02  0.17302769916E+02  0.13277345677E+03  0.12509000000E+03 0.  0.
         25    1    1    2    0    0 -0.50284027255E+02 -0.19627815677E+02  0.85790860571E+01  0.13650949917E+03  0.12509000000E+03 0.  0.
<mgrwt>
<rscale>  2 0.40538534E+03</rscale>
<asrwt>0</asrwt>
<pdfrwt beam="1">  1       21 0.34546706E-01 0.40538534E+03</pdfrwt>
<pdfrwt beam="2">  1       21 0.25718855E-01 0.40538534E+03</pdfrwt>
<totfact> 0.10923087E+05</totfact>
</mgrwt>
</event>
<event>
 6    0  0.1539497E-004  0.4796599E+03  0.7546771E-02  0.1019229E+00
         21   -1    0    0  502  501  0.00000000000E+00  0.00000000000E+00  0.28127357586E+04  0.28127357586E+04  0.00000000000E+00 0.  1.
         21   -1    0    0  501  502 -0.00000000000E+00 -0.00000000000E+00 -0.20449274479E+02  0.20449274479E+02  0.00000000000E+00 0.  1.
      99925    2    1    2    0    0  0.10024705344E+03  0.89998133219E+02  0.16779183717E+04  0.17037546750E+04  0.26309845065E+03 0.  0.
         25    1    1    2    0    0 -0.10024705344E+03 -0.89998133219E+02  0.11143681124E+04  0.11294303581E+04  0.12509000000E+03 0.  0.
         25    1    3    3    0    0  0.18584856024E+02  0.15340109490E+02  0.65127512530E+03  0.66361699252E+03  0.12509000000E+03 0.  0.
         25    1    3    3    0    0  0.81662197415E+02  0.74658023728E+02  0.10266432464E+04  0.10401376825E+04  0.12509000000E+03 0.  0.
<mgrwt>
<rscale>  2 0.47965990E+03</rscale>
<asrwt>0</asrwt>
<pdfrwt beam="1">  1       21 0.41363735E+00 0.47965990E+03</pdfrwt>
<pdfrwt beam="2">  1       21 0.30072482E-02 0.47965990E+03</pdfrwt>
<totfact> 0.35559560E+03</totfact>
</mgrwt>
</event>
<event>
 6    0  0.1539497E-004  0.4060033E+03  0.7546771E-02  0.1041721E+00
         21   -1    0    0  502  501  0.00000000000E+00  0.00000000000E+00  0.77722613318E+03  0.77722613318E+03  0.00000000000E+00 0.  1.
         21   -1    0    0  501  502 -0.00000000000E+00 -0.00000000000E+00 -0.53021477140E+02  0.53021477140E+02  0.00000000000E+00 0.  1.
      99925    2    1    2    0    0 -0.11791010624E+02  0.18536974606E+02  0.58490113638E+03  0.64173865550E+03  0.26312832470E+03 0.  0.
         25    1    3    3    0    0 -0.35915171839E+02 -0.13299951502E+02  0.25339254242E+03  0.28517025955E+03  0.12509000000E+03 0.  0.
         25    1    1    2    0    0  0.11791010624E+02 -0.18536974606E+02  0.13930351966E+03  0.18850895482E+03  0.12509000000E+03 0.  0.
         25    1    3    3    0    0  0.24124161214E+02  0.31836926108E+02  0.33150859396E+03  0.35656839595E+03  0.12509000000E+03 0.  0.
<mgrwt>
<rscale>  2 0.40600334E+03</rscale>
<asrwt>0</asrwt>
<pdfrwt beam="1">  1       21 0.11429795E+00 0.40600334E+03</pdfrwt>
<pdfrwt beam="2">  1       21 0.77972765E-02 0.40600334E+03</pdfrwt>
<totfact> 0.69409317E+04</totfact>
</mgrwt>
</event>
<event>
 6    0  0.1539497E-004  0.4798725E+03  0.7546771E-02  0.1019170E+00
         21   -1    0    0  502  501  0.00000000000E+00  0.00000000000E+00  0.16096639780E+03  0.16096639780E+03  0.00000000000E+00 0. -1.
         21   -1    0    0  501  502 -0.00000000000E+00 -0.00000000000E+00 -0.35764854120E+03  0.35764854120E+03  0.00000000000E+00 0. -1.
      99925    2    1    2    0    0 -0.13404763628E+03  0.16433637670E+02 -0.12643955767E+03  0.32158610307E+03  0.26304339319E+03 0.  0.
         25    1    1    2    0    0  0.13404763628E+03 -0.16433637670E+02 -0.70242585724E+02  0.19702883593E+03  0.12509000000E+03 0.  0.
         25    1    3    3    0    0 -0.10016944628E+03 -0.95157287779E+01 -0.46552911749E+02  0.16715007854E+03  0.12509000000E+03 0.  0.
         25    1    3    3    0    0 -0.33878190004E+02  0.25949366448E+02 -0.79886645921E+02  0.15443602453E+03  0.12509000000E+03 0.  0.
<mgrwt>
<rscale>  2 0.47987247E+03</rscale>
<asrwt>0</asrwt>
<pdfrwt beam="1">  1       21 0.23671529E-01 0.47987247E+03</pdfrwt>
<pdfrwt beam="2">  1       21 0.52595373E-01 0.47987247E+03</pdfrwt>
<totfact> 0.52769089E+04</totfact>
</mgrwt>
</event>
<event>
 6    0  0.1539497E-004  0.3929521E+03  0.7546771E-02  0.1046248E+00
         21   -1    0    0  502  501  0.00000000000E+00  0.00000000000E+00  0.56776485793E+02  0.56776485793E+02  0.00000000000E+00 0. -1.
         21   -1    0    0  501  502 -0.00000000000E+00 -0.00000000000E+00 -0.67990881362E+03  0.67990881362E+03  0.00000000000E+00 0. -1.
      99925    2    1    2    0    0  0.25703413199E+02  0.73284636622E+01 -0.39916526648E+03  0.47876452766E+03  0.26299846227E+03 0.  0.
         25    1    1    2    0    0 -0.25703413199E+02 -0.73284636622E+01 -0.22396706135E+03  0.25792077175E+03  0.12509000000E+03 0.  0.
         25    1    3    3    0    0 -0.80323919106E+01  0.20344008997E+02 -0.25252351011E+03  0.28265531886E+03  0.12509000000E+03 0.  0.
         25    1    3    3    0    0  0.33735805109E+02 -0.13015545334E+02 -0.14664175636E+03  0.19610920880E+03  0.12509000000E+03 0.  0.
<mgrwt>
<rscale>  2 0.39295207E+03</rscale>
<asrwt>0</asrwt>
<pdfrwt beam="1">  1       21 0.83494830E-02 0.39295207E+03</pdfrwt>
<pdfrwt beam="2">  1       21 0.99986592E-01 0.39295207E+03</pdfrwt>
<totfact> 0.85734022E+04</totfact>
</mgrwt>
</event>
<event>
 6    0  0.1539497E-004  0.4073182E+03  0.7546771E-02  0.1041275E+00
         21   -1    0    0  502  501  0.00000000000E+00  0.00000000000E+00  0.18397393896E+03  0.18397393896E+03  0.00000000000E+00 0.  1.
         21   -1    0    0  501  502 -0.00000000000E+00 -0.00000000000E+00 -0.22545053708E+03  0.22545053708E+03  0.00000000000E+00 0.  1.
      99925    2    1    2    0    0 -0.41124556191E+02  0.38350219620E+02 -0.12023178829E+02  0.26914981520E+03  0.26293553911E+03 0.  0.
         25    1    3    3    0    0  0.67525413275E+01 -0.79255740055E+01 -0.20513009961E+02  0.12718766927E+03  0.12509000000E+03 0.  0.
         25    1    1    2    0    0  0.41124556191E+02 -0.38350219620E+02 -0.29453419287E+02  0.14027466084E+03  0.12509000000E+03 0.  0.
         25    1    3    3    0    0 -0.47877097518E+02  0.46275793626E+02  0.84898311325E+01  0.14196214592E+03  0.12509000000E+03 0.  0.
<mgrwt>
<rscale>  2 0.40731817E+03</rscale>
<asrwt>0</asrwt>
<pdfrwt beam="1">  1       21 0.27054991E-01 0.40731817E+03</pdfrwt>
<pdfrwt beam="2">  1       21 0.33154490E-01 0.40731817E+03</pdfrwt>
<totfact> 0.10743695E+05</totfact>
</mgrwt>
</event>
<event>
 6    0  0.1539497E-004  0.4349500E+03  0.7546771E-02  0.1032308E+00
         21   -1    0    0  502  501  0.00000000000E+00  0.00000000000E+00  0.44467230752E+02  0.44467230752E+02  0.00000000000E+00 0.  1.
         21   -1    0    0  501  502 -0.00000000000E+00 -0.00000000000E+00 -0.10636008022E+04  0.10636008022E+04  0.00000000000E+00 0.  1.
      99925    2    1    2    0    0 -0.72430180226E+02 -0.55092965280E+02 -0.61141006787E+03  0.67198624096E+03  0.26355620107E+03 0.  0.
         25    1    3    3    0    0 -0.38766927311E+02 -0.68692384737E+02 -0.34857260321E+03  0.37864480214E+03  0.12509000000E+03 0.  0.
         25    1    3    3    0    0 -0.33663252915E+02  0.13599419457E+02 -0.26283746465E+03  0.29334143883E+03  0.12509000000E+03 0.  0.
         25    1    1    2    0    0  0.72430180226E+02  0.55092965280E+02 -0.40772350354E+03  0.43608179195E+03  0.12509000000E+03 0.  0.
<mgrwt>
<rscale>  2 0.43495003E+03</rscale>
<asrwt>0</asrwt>
<pdfrwt beam="1">  1       21 0.65392998E-02 0.43495003E+03</pdfrwt>
<pdfrwt beam="2">  1       21 0.15641185E+00 0.43495003E+03</pdfrwt>
<totfact> 0.41302555E+04</totfact>
</mgrwt>
</event>
<event>
 6    0  0.1539497E-004  0.5955312E+03  0.7546771E-02  0.9914721E-01
         21   -1    0    0  502  501  0.00000000000E+00  0.00000000000E+00  0.11023194896E+04  0.11023194896E+04  0.00000000000E+00 0. -1.
         21   -1    0    0  501  502 -0.00000000000E+00 -0.00000000000E+00 -0.80434351791E+02  0.80434351791E+02  0.00000000000E+00 0. -1.
      99925    2    1    2    0    0  0.17774617997E+03  0.73358035683E+02  0.79908653019E+03  0.86296979935E+03  0.26306365384E+03 0.  0.
         25    1    3    3    0    0  0.59353998073E+02 -0.42547014516E+00  0.33493185560E+03  0.36242231458E+03  0.12509000000E+03 0.  0.
         25    1    3    3    0    0  0.11839218189E+03  0.73783505829E+02  0.46415467459E+03  0.50054748477E+03  0.12509000000E+03 0.  0.
         25    1    1    2    0    0 -0.17774617997E+03 -0.73358035683E+02  0.22279860765E+03  0.31978404207E+03  0.12509000000E+03 0.  0.
<mgrwt>
<rscale>  2 0.59553120E+03</rscale>
<asrwt>0</asrwt>
<pdfrwt beam="1">  1       21 0.16210580E+00 0.59553120E+03</pdfrwt>
<pdfrwt beam="2">  1       21 0.11828582E-01 0.59553120E+03</pdfrwt>
<totfact> 0.12427794E+04</totfact>
</mgrwt>
</event>
<event>
 6    0  0.1539497E-004  0.4693441E+03  0.7546771E-02  0.1022105E+00
         21   -1    0    0  502  501  0.00000000000E+00  0.00000000000E+00  0.30659964229E+02  0.30659964229E+02  0.00000000000E+00 0. -1.
         21   -1    0    0  501  502 -0.00000000000E+00 -0.00000000000E+00 -0.17961851242E+04  0.17961851242E+04  0.00000000000E+00 0. -1.
      99925    2    1    2    0    0 -0.43124903117E+02 -0.11371527161E+03 -0.12240862140E+04  0.12579913633E+04  0.26337101319E+03 0.  0.
         25    1    3    3    0    0 -0.39615403465E+02 -0.59183541468E+02 -0.78802549660E+03  0.80106414423E+03  0.12509000000E+03 0.  0.
         25    1    3    3    0    0 -0.35094996514E+01 -0.54531730146E+02 -0.43606071739E+03  0.45692721908E+03  0.12509000000E+03 0.  0.
         25    1    1    2    0    0  0.43124903117E+02  0.11371527161E+03 -0.54143894596E+03  0.56885372511E+03  0.12509000000E+03 0.  0.
<mgrwt>
<rscale>  2 0.46934410E+03</rscale>
<asrwt>0</asrwt>
<pdfrwt beam="1">  1       21 0.45088182E-02 0.46934410E+03</pdfrwt>
<pdfrwt beam="2">  1       21 0.26414487E+00 0.46934410E+03</pdfrwt>
<totfact> 0.15007250E+04</totfact>
</mgrwt>
</event>
<event>
 6    0  0.1539497E-004  0.4357379E+03  0.7546771E-02  0.1032063E+00
         21   -1    0    0  502  501  0.00000000000E+00  0.00000000000E+00  0.41420749238E+02  0.41420749238E+02  0.00000000000E+00 0.  1.
         21   -1    0    0  501  502 -0.00000000000E+00 -0.00000000000E+00 -0.11459687292E+04  0.11459687292E+04  0.00000000000E+00 0.  1.
      99925    2    1    2    0    0  0.60176074323E+02  0.52936430006E+02 -0.57427251767E+03  0.63669627933E+03  0.26300152473E+03 0.  0.
         25    1    3    3    0    0  0.49662928272E+02 -0.15441191665E+01 -0.33546552090E+03  0.36146011476E+03  0.12509000000E+03 0.  0.
         25    1    1    2    0    0 -0.60176074323E+02 -0.52936430006E+02 -0.53027546227E+03  0.55069319910E+03  0.12509000000E+03 0.  0.
         25    1    3    3    0    0  0.10513146051E+02  0.54480549172E+02 -0.23880699677E+03  0.27523616457E+03  0.12509000000E+03 0.  0.
<mgrwt>
<rscale>  2 0.43573792E+03</rscale>
<asrwt>0</asrwt>
<pdfrwt beam="1">  1       21 0.60912865E-02 0.43573792E+03</pdfrwt>
<pdfrwt beam="2">  1       21 0.16852482E+00 0.43573792E+03</pdfrwt>
<totfact> 0.37939663E+04</totfact>
</mgrwt>
</event>
<event>
 6    0  0.1539497E-004  0.4396058E+03  0.7546771E-02  0.1030868E+00
         21   -1    0    0  502  501  0.00000000000E+00  0.00000000000E+00  0.12343710556E+04  0.12343710556E+04  0.00000000000E+00 0.  1.
         21   -1    0    0  501  502 -0.00000000000E+00 -0.00000000000E+00 -0.39140032672E+02  0.39140032672E+02  0.00000000000E+00 0.  1.
      99925    2    1    2    0    0 -0.92797308027E+02 -0.29432058106E+02  0.72853219732E+03  0.78062886264E+03  0.26295374542E+03 0.  0.
         25    1    3    3    0    0 -0.40334932915E+02  0.12510488940E+01  0.25200882124E+03  0.28422601221E+03  0.12509000000E+03 0.  0.
         25    1    1    2    0    0  0.92797308027E+02  0.29432058106E+02  0.46669882558E+03  0.49288222560E+03  0.12509000000E+03 0.  0.
         25    1    3    3    0    0 -0.52462375112E+02 -0.30683107000E+02  0.47652337609E+03  0.49640285043E+03  0.12509000000E+03 0.  0.
<mgrwt>
<rscale>  2 0.43960584E+03</rscale>
<asrwt>0</asrwt>
<pdfrwt beam="1">  1       21 0.18152513E+00 0.43960584E+03</pdfrwt>
<pdfrwt beam="2">  1       21 0.57558880E-02 0.43960584E+03</pdfrwt>
<totfact> 0.33759102E+04</totfact>
</mgrwt>
</event>
<event>
 6    0  0.1539497E-004  0.4185479E+03  0.7546771E-02  0.1037540E+00
         21   -1    0    0  502  501  0.00000000000E+00  0.00000000000E+00  0.30391263225E+03  0.30391263225E+03  0.00000000000E+00 0. -1.
         21   -1    0    0  501  502 -0.00000000000E+00 -0.00000000000E+00 -0.14410584894E+03  0.14410584894E+03  0.00000000000E+00 0. -1.
      99925    2    1    2    0    0 -0.19308434496E+02 -0.13718786644E+02  0.17910368306E+03  0.31925164078E+03  0.26321561523E+03 0.  0.
         25    1    3    3    0    0 -0.76654616002E+01  0.64260672433E+01  0.42303894402E+02  0.13242802280E+03  0.12509000000E+03 0.  0.
         25    1    1    2    0    0  0.19308434496E+02  0.13718786644E+02 -0.19296899747E+02  0.12876684041E+03  0.12509000000E+03 0.  0.
         25    1    3    3    0    0 -0.11642972896E+02 -0.20144853887E+02  0.13679978866E+03  0.18682361797E+03  0.12509000000E+03 0.  0.
<mgrwt>
<rscale>  2 0.41854791E+03</rscale>
<asrwt>0</asrwt>
<pdfrwt beam="1">  1       21 0.44693034E-01 0.41854791E+03</pdfrwt>
<pdfrwt beam="2">  1       21 0.21192037E-01 0.41854791E+03</pdfrwt>
<totfact> 0.93313826E+04</totfact>
</mgrwt>
</event>
<event>
 6    0  0.1539497E-004  0.4097844E+03  0.7546771E-02  0.1040443E+00
         21   -1    0    0  502  501  0.00000000000E+00  0.00000000000E+00  0.51610061842E+02  0.51610061842E+02  0.00000000000E+00 0. -1.
         21   -1    0    0  501  502 -0.00000000000E+00 -0.00000000000E+00 -0.81342306696E+03  0.81342306696E+03  0.00000000000E+00 0. -1.
      99925    2    1    2    0    0 -0.41089699974E+02  0.26045957728E+02 -0.42139317876E+03  0.49910974661E+03  0.26300489101E+03 0.  0.
         25    1    3    3    0    0 -0.32985411263E+02  0.32916777667E+02 -0.27892147715E+03  0.30921877388E+03  0.12509000000E+03 0.  0.
         25    1    3    3    0    0 -0.81042887106E+01 -0.68708199390E+01 -0.14247170161E+03  0.18989097272E+03  0.12509000000E+03 0.  0.
         25    1    1    2    0    0  0.41089699974E+02 -0.26045957728E+02 -0.34041982636E+03  0.36592338220E+03  0.12509000000E+03 0.  0.
<mgrwt>
<rscale>  2 0.40978441E+03</rscale>
<asrwt>0</asrwt>
<pdfrwt beam="1">  1       21 0.75897155E-02 0.40978441E+03</pdfrwt>
<pdfrwt beam="2">  1       21 0.11962103E+00 0.40978441E+03</pdfrwt>
<totfact> 0.64880631E+04</totfact>
</mgrwt>
</event>
<event>
 6    0  0.1539497E-004  0.4594501E+03  0.7546771E-02  0.1024941E+00
         21   -1    0    0  502  501  0.00000000000E+00  0.00000000000E+00  0.46617644860E+03  0.46617644860E+03  0.00000000000E+00 0. -1.
         21   -1    0    0  501  502 -0.00000000000E+00 -0.00000000000E+00 -0.11320521884E+03  0.11320521884E+03  0.00000000000E+00 0. -1.
      99925    2    1    2    0    0  0.60670335817E+02  0.80466742453E+02  0.29690977663E+03  0.40924589544E+03  0.26300380451E+03 0.  0.
         25    1    3    3    0    0  0.68070816099E+02  0.25659126231E+02  0.15983753954E+03  0.21560977229E+03  0.12509000000E+03 0.  0.
         25    1    1    2    0    0 -0.60670335817E+02 -0.80466742453E+02  0.56061453128E+02  0.17013577201E+03  0.12509000000E+03 0.  0.
         25    1    3    3    0    0 -0.74004802816E+01  0.54807616222E+02  0.13707223709E+03  0.19363612314E+03  0.12509000000E+03 0.  0.
<mgrwt>
<rscale>  2 0.45945014E+03</rscale>
<asrwt>0</asrwt>
<pdfrwt beam="1">  1       21 0.68555359E-01 0.45945014E+03</pdfrwt>
<pdfrwt beam="2">  1       21 0.16647827E-01 0.45945014E+03</pdfrwt>
<totfact> 0.57901500E+04</totfact>
</mgrwt>
</event>
<event>
 6    0  0.1539497E-004  0.3905571E+03  0.7546771E-02  0.1047099E+00
         21   -1    0    0  502  501  0.00000000000E+00  0.00000000000E+00  0.56515791383E+03  0.56515791383E+03  0.00000000000E+00 0. -1.
         21   -1    0    0  501  502 -0.00000000000E+00 -0.00000000000E+00 -0.67474434169E+02  0.67474434169E+02  0.00000000000E+00 0. -1.
      99925    2    1    2    0    0 -0.52695132465E+01 -0.24251892384E+01  0.30383580438E+03  0.40185522906E+03  0.26294063929E+03 0.  0.
         25    1    1    2    0    0  0.52695132465E+01  0.24251892384E+01  0.19384767528E+03  0.23077711894E+03  0.12509000000E+03 0.  0.
         25    1    3    3    0    0  0.35372739229E+02 -0.14838888789E+02  0.15525336433E+03  0.20303334341E+03  0.12509000000E+03 0.  0.
         25    1    3    3    0    0 -0.40642252475E+02  0.12413699551E+02  0.14858244005E+03  0.19882188565E+03  0.12509000000E+03 0.  0.
<mgrwt>
<rscale>  2 0.39055709E+03</rscale>
<asrwt>0</asrwt>
<pdfrwt beam="1">  1       21 0.83111455E-01 0.39055709E+03</pdfrwt>
<pdfrwt beam="2">  1       21 0.99227112E-02 0.39055709E+03</pdfrwt>
<totfact> 0.97677147E+04</totfact>
</mgrwt>
</event>
<event>
 6    0  0.1539497E-004  0.4932872E+03  0.7546771E-02  0.1015546E+00
         21   -1    0    0  502  501  0.00000000000E+00  0.00000000000E+00  0.21792691996E+03  0.21792691996E+03  0.00000000000E+00 0. -1.
         21   -1    0    0  501  502 -0.00000000000E+00 -0.00000000000E+00 -0.27914433207E+03  0.27914433207E+03  0.00000000000E+00 0. -1.
      99925    2    1    2    0    0  0.12065855967E+03  0.41757879277E+02 -0.10914013828E+03  0.31201368183E+03  0.26294250200E+03 0.  0.
         25    1    1    2    0    0 -0.12065855967E+03 -0.41757879277E+02  0.47922726174E+02  0.18505757020E+03  0.12509000000E+03 0.  0.
         25    1    3    3    0    0  0.47040189724E+02  0.46604117188E+02 -0.23663376459E+02  0.14349977935E+03  0.12509000000E+03 0.  0.
         25    1    3    3    0    0  0.73618369950E+02 -0.48462379112E+01 -0.85476761821E+02  0.16851390248E+03  0.12509000000E+03 0.  0.
<mgrwt>
<rscale>  2 0.49328720E+03</rscale>
<asrwt>0</asrwt>
<pdfrwt beam="1">  1       21 0.32048077E-01 0.49328720E+03</pdfrwt>
<pdfrwt beam="2">  1       21 0.41050637E-01 0.49328720E+03</pdfrwt>
<totfact> 0.48846353E+04</totfact>
</mgrwt>
</event>
<event>
 6    0  0.1539497E-004  0.4276295E+03  0.7546771E-02  0.1034611E+00
         21   -1    0    0  502  501  0.00000000000E+00  0.00000000000E+00  0.70885300413E+02  0.70885300413E+02  0.00000000000E+00 0. -1.
         21   -1    0    0  501  502 -0.00000000000E+00 -0.00000000000E+00 -0.64493970944E+03  0.64493970944E+03  0.00000000000E+00 0. -1.
      99925    2    1    2    0    0  0.63896016639E+02  0.56492787301E+02 -0.36056680935E+03  0.45410263925E+03  0.26253884857E+03 0.  0.
         25    1    1    2    0    0 -0.63896016639E+02 -0.56492787301E+02 -0.21348759968E+03  0.26172237061E+03  0.12509000000E+03 0.  0.
         25    1    3    3    0    0  0.23601197866E+02  0.21978009768E+01 -0.12175639130E+03  0.17616462128E+03  0.12509000000E+03 0.  0.
         25    1    3    3    0    0  0.40294818773E+02  0.54294986325E+02 -0.23881041805E+03  0.27793801797E+03  0.12509000000E+03 0.  0.
<mgrwt>
<rscale>  2 0.42762949E+03</rscale>
<asrwt>0</asrwt>
<pdfrwt beam="1">  1       21 0.10424309E-01 0.42762949E+03</pdfrwt>
<pdfrwt beam="2">  1       21 0.94844070E-01 0.42762949E+03</pdfrwt>
<totfact> 0.64946200E+04</totfact>
</mgrwt>
</event>
<event>
 6    0  0.1539497E-004  0.4719758E+03  0.7546771E-02  0.1021364E+00
         21   -1    0    0  502  501  0.00000000000E+00  0.00000000000E+00  0.42960011654E+03  0.42960011654E+03  0.00000000000E+00 0. -1.
         21   -1    0    0  501  502 -0.00000000000E+00 -0.00000000000E+00 -0.12963283919E+03  0.12963283919E+03  0.00000000000E+00 0. -1.
      99925    2    1    2    0    0  0.54424221624E+02 -0.11180016530E+03  0.22390526459E+03  0.36715429803E+03  0.26307306625E+03 0.  0.
         25    1    3    3    0    0  0.55417053459E+02 -0.83464529512E+02  0.10052960471E+03  0.18918532455E+03  0.12509000000E+03 0.  0.
         25    1    3    3    0    0 -0.99283183480E+00 -0.28335635790E+02  0.12337565988E+03  0.17796897348E+03  0.12509000000E+03 0.  0.
         25    1    1    2    0    0 -0.54424221624E+02  0.11180016530E+03  0.76062012763E+02  0.19207865771E+03  0.12509000000E+03 0.  0.
<mgrwt>
<rscale>  2 0.47197577E+03</rscale>
<asrwt>0</asrwt>
<pdfrwt beam="1">  1       21 0.63176487E-01 0.47197577E+03</pdfrwt>
<pdfrwt beam="2">  1       21 0.19063653E-01 0.47197577E+03</pdfrwt>
<totfact> 0.53679053E+04</totfact>
</mgrwt>
</event>
<event>
 6    0  0.1539497E-004  0.8089358E+03  0.7546771E-02  0.9547172E-01
         21   -1    0    0  502  501  0.00000000000E+00  0.00000000000E+00  0.19409122444E+04  0.19409122444E+04  0.00000000000E+00 0. -1.
         21   -1    0    0  501  502 -0.00000000000E+00 -0.00000000000E+00 -0.84287325536E+02  0.84287325536E+02  0.00000000000E+00 0. -1.
      99925    2    1    2    0    0  0.16421758150E+03  0.26210235070E+03  0.59554041106E+03  0.72072776103E+03  0.26289744768E+03 0.  0.
         25    1    3    3    0    0  0.10049663439E+03  0.93546454910E+02  0.25014154604E+03  0.31155868453E+03  0.12509000000E+03 0.  0.
         25    1    1    2    0    0 -0.16421758150E+03 -0.26210235070E+03  0.12610845078E+04  0.13044718089E+04  0.12509000000E+03 0.  0.
         25    1    3    3    0    0  0.63720947106E+02  0.16855589579E+03  0.34539886503E+03  0.40916907650E+03  0.12509000000E+03 0.  0.
<mgrwt>
<rscale>  2 0.80893585E+03</rscale>
<asrwt>0</asrwt>
<pdfrwt beam="1">  1       21 0.28542824E+00 0.80893585E+03</pdfrwt>
<pdfrwt beam="2">  1       21 0.12395196E-01 0.80893585E+03</pdfrwt>
<totfact> 0.16559598E+03</totfact>
</mgrwt>
</event>
<event>
 6    0  0.1539497E-004  0.4469690E+03  0.7546771E-02  0.1028630E+00
         21   -1    0    0  502  501  0.00000000000E+00  0.00000000000E+00  0.98935105211E+03  0.98935105211E+03  0.00000000000E+00 0. -1.
         21   -1    0    0  501  502 -0.00000000000E+00 -0.00000000000E+00 -0.50482919185E+02  0.50482919185E+02  0.00000000000E+00 0. -1.
      99925    2    1    2    0    0 -0.10081149754E+03 -0.15002663617E+01  0.66681791086E+03  0.72388454455E+03  0.26305417456E+03 0.  0.
         25    1    3    3    0    0 -0.18396981951E+02  0.18850804676E+02  0.35592247729E+03  0.37818265392E+03  0.12509000000E+03 0.  0.
         25    1    1    2    0    0  0.10081149754E+03  0.15002663617E+01  0.27205022206E+03  0.31594942674E+03  0.12509000000E+03 0.  0.
         25    1    3    3    0    0 -0.82414515590E+02 -0.20351071038E+02  0.31089543357E+03  0.34570189063E+03  0.12509000000E+03 0.  0.
<mgrwt>
<rscale>  2 0.44696903E+03</rscale>
<asrwt>0</asrwt>
<pdfrwt beam="1">  1       21 0.14549279E+00 0.44696903E+03</pdfrwt>
<pdfrwt beam="2">  1       21 0.74239593E-02 0.44696903E+03</pdfrwt>
<totfact> 0.40108675E+04</totfact>
</mgrwt>
</event>
<event>
 5    0  0.1539497E-004  0.5093573E+03  0.7546771E-02  0.1011365E+00
         21   -1    0    0  502  501  0.00000000000E+00  0.00000000000E+00  0.97147397259E+02  0.97147397259E+02  0.00000000000E+00 0. -1.
         21   -1    0    0  501  502 -0.00000000000E+00 -0.00000000000E+00 -0.66765775023E+03  0.66765775023E+03  0.00000000000E+00 0. -1.
         25    1    1    2    0    0  0.13407710109E+03 -0.30638462534E+02 -0.11019432039E+03  0.21611497118E+03  0.12509000000E+03 0.  0.
         25    1    1    2    0    0 -0.10427207456E+03  0.45605625980E+02 -0.26506734124E+03  0.31442128132E+03  0.12509000000E+03 0.  0.
         25    1    1    2    0    0 -0.29805026530E+02 -0.14967163446E+02 -0.19524869135E+03  0.23426889499E+03  0.12509000000E+03 0.  0.
<mgrwt>
<rscale>  2 0.50935729E+03</rscale>
<asrwt>0</asrwt>
<pdfrwt beam="1">  1       21 0.14286382E-01 0.50935729E+03</pdfrwt>
<pdfrwt beam="2">  1       21 0.98184960E-01 0.50935729E+03</pdfrwt>
<totfact> 0.32997516E+04</totfact>
</mgrwt>
</event>
<event>
 6    0  0.1539497E-004  0.4232268E+03  0.7546771E-02  0.1036021E+00
         21   -1    0    0  502  501  0.00000000000E+00  0.00000000000E+00  0.23340324931E+03  0.23340324931E+03  0.00000000000E+00 0. -1.
         21   -1    0    0  501  502 -0.00000000000E+00 -0.00000000000E+00 -0.19185778571E+03  0.19185778571E+03  0.00000000000E+00 0. -1.
      99925    2    1    2    0    0  0.53074918816E+02  0.22276864485E+02  0.82503122262E+02  0.28160086795E+03  0.26301915890E+03 0.  0.
         25    1    1    2    0    0 -0.53074918816E+02 -0.22276864485E+02 -0.40957658660E+02  0.14366016707E+03  0.12509000000E+03 0.  0.
         25    1    3    3    0    0  0.47420179613E+02 -0.23685286843E+02  0.41722640916E+02  0.14211950293E+03  0.12509000000E+03 0.  0.
         25    1    3    3    0    0  0.56547392026E+01  0.45962151328E+02  0.40780481346E+02  0.13948136502E+03  0.12509000000E+03 0.  0.
<mgrwt>
<rscale>  2 0.42322680E+03</rscale>
<asrwt>0</asrwt>
<pdfrwt beam="1">  1       21 0.34324007E-01 0.42322680E+03</pdfrwt>
<pdfrwt beam="2">  1       21 0.28214380E-01 0.42322680E+03</pdfrwt>
<totfact> 0.91979392E+04</totfact>
</mgrwt>
</event>
<event>
 6    0  0.1539497E-004  0.4135189E+03  0.7546771E-02  0.1039197E+00
         21   -1    0    0  502  501  0.00000000000E+00  0.00000000000E+00  0.75404339085E+02  0.75404339085E+02  0.00000000000E+00 0.  1.
         21   -1    0    0  501  502 -0.00000000000E+00 -0.00000000000E+00 -0.56693653509E+03  0.56693653509E+03  0.00000000000E+00 0.  1.
      99925    2    1    2    0    0  0.45898454405E+02 -0.81494925841E+01 -0.24780840044E+03  0.36445262511E+03  0.26314184440E+03 0.  0.
         25    1    3    3    0    0  0.62092928825E+02 -0.16851925530E+02 -0.13636588265E+03  0.19591498476E+03  0.12509000000E+03 0.  0.
         25    1    3    3    0    0 -0.16194474420E+02  0.87024329462E+01 -0.11144251779E+03  0.16853764035E+03  0.12509000000E+03 0.  0.
         25    1    1    2    0    0 -0.45898454405E+02  0.81494925841E+01 -0.24372379557E+03  0.27788824907E+03  0.12509000000E+03 0.  0.
<mgrwt>
<rscale>  2 0.41351892E+03</rscale>
<asrwt>0</asrwt>
<pdfrwt beam="1">  1       21 0.11088873E-01 0.41351892E+03</pdfrwt>
<pdfrwt beam="2">  1       21 0.83373020E-01 0.41351892E+03</pdfrwt>
<totfact> 0.78976884E+04</totfact>
</mgrwt>
</event>
<event>
 6    0  0.1539497E-004  0.4284915E+03  0.7546771E-02  0.1034338E+00
         21   -1    0    0  502  501  0.00000000000E+00  0.00000000000E+00  0.25899415020E+02  0.25899415020E+02  0.00000000000E+00 0. -1.
         21   -1    0    0  501  502 -0.00000000000E+00 -0.00000000000E+00 -0.17722890193E+04  0.17722890193E+04  0.00000000000E+00 0. -1.
      99925    2    1    2    0    0 -0.61773917142E+02 -0.25646279961E+02 -0.90103878391E+03  0.94101910092E+03  0.26300629209E+03 0.  0.
         25    1    3    3    0    0 -0.68256254974E+02 -0.29367308208E+02 -0.45356599985E+03  0.47633074586E+03  0.12509000000E+03 0.  0.
         25    1    3    3    0    0  0.64823378323E+01  0.37210282474E+01 -0.44747278406E+03  0.46468835506E+03  0.12509000000E+03 0.  0.
         25    1    1    2    0    0  0.61773917142E+02  0.25646279961E+02 -0.84535082042E+03  0.85716933344E+03  0.12509000000E+03 0.  0.
<mgrwt>
<rscale>  2 0.42849153E+03</rscale>
<asrwt>0</asrwt>
<pdfrwt beam="1">  1       21 0.38087364E-02 0.42849153E+03</pdfrwt>
<pdfrwt beam="2">  1       21 0.26063081E+00 0.42849153E+03</pdfrwt>
<totfact> 0.21362925E+04</totfact>
</mgrwt>
</event>
<event>
 6    0  0.1539497E-004  0.4014636E+03  0.7546771E-02  0.1043274E+00
         21   -1    0    0  502  501  0.00000000000E+00  0.00000000000E+00  0.88541756633E+02  0.88541756633E+02  0.00000000000E+00 0.  1.
         21   -1    0    0  501  502 -0.00000000000E+00 -0.00000000000E+00 -0.45507620479E+03  0.45507620479E+03  0.00000000000E+00 0.  1.
      99925    2    1    2    0    0  0.17696651969E+02  0.40829423650E+02 -0.21897182950E+03  0.34511746306E+03  0.26301556583E+03 0.  0.
         25    1    3    3    0    0 -0.20029904400E+02  0.99051347544E+01 -0.14118286488E+03  0.18994582965E+03  0.12509000000E+03 0.  0.
         25    1    3    3    0    0  0.37726556368E+02  0.30924288895E+02 -0.77788964623E+02  0.15517163341E+03  0.12509000000E+03 0.  0.
         25    1    1    2    0    0 -0.17696651969E+02 -0.40829423650E+02 -0.14756261866E+03  0.19850049837E+03  0.12509000000E+03 0.  0.
<mgrwt>
<rscale>  2 0.40146356E+03</rscale>
<asrwt>0</asrwt>
<pdfrwt beam="1">  1       21 0.13020846E-01 0.40146356E+03</pdfrwt>
<pdfrwt beam="2">  1       21 0.66922972E-01 0.40146356E+03</pdfrwt>
<totfact> 0.97475859E+04</totfact>
</mgrwt>
</event>
<event>
 6    0  0.1539497E-004  0.4160795E+03  0.7546771E-02  0.1038350E+00
         21   -1    0    0  502  501  0.00000000000E+00  0.00000000000E+00  0.22802184286E+03  0.22802184286E+03  0.00000000000E+00 0.  1.
         21   -1    0    0  501  502 -0.00000000000E+00 -0.00000000000E+00 -0.18980874299E+03  0.18980874299E+03  0.00000000000E+00 0.  1.
      99925    2    1    2    0    0 -0.30032374180E+02  0.62971825897E+02  0.16437842991E+02  0.27295455516E+03  0.26337538258E+03 0.  0.
         25    1    3    3    0    0 -0.54552077385E+02  0.27202566402E+02  0.19580107362E+02  0.14052329867E+03  0.12509000000E+03 0.  0.
         25    1    1    2    0    0  0.30032374180E+02 -0.62971825897E+02  0.21775256881E+02  0.14487603069E+03  0.12509000000E+03 0.  0.
         25    1    3    3    0    0  0.24519703205E+02  0.35769259495E+02 -0.31422643715E+01  0.13243125649E+03  0.12509000000E+03 0.  0.
<mgrwt>
<rscale>  2 0.41607951E+03</rscale>
<asrwt>0</asrwt>
<pdfrwt beam="1">  1       21 0.33532624E-01 0.41607951E+03</pdfrwt>
<pdfrwt beam="2">  1       21 0.27913050E-01 0.41607951E+03</pdfrwt>
<totfact> 0.98601462E+04</totfact>
</mgrwt>
</event>
<event>
 6    0  0.1539497E-004  0.4558147E+03  0.7546771E-02  0.1026002E+00
         21   -1    0    0  502  501  0.00000000000E+00  0.00000000000E+00  0.24385532751E+03  0.24385532751E+03  0.00000000000E+00 0.  1.
         21   -1    0    0  501  502 -0.00000000000E+00 -0.00000000000E+00 -0.21300233616E+03  0.21300233616E+03  0.00000000000E+00 0.  1.
      99925    2    1    2    0    0 -0.10212575806E+03 -0.50407489795E+02  0.17076141489E+02  0.28712877639E+03  0.26302234532E+03 0.  0.
         25    1    3    3    0    0 -0.21827829600E+02 -0.17729652238E+02  0.37467792160E+02  0.13357446711E+03  0.12509000000E+03 0.  0.
         25    1    3    3    0    0 -0.80297928460E+02 -0.32677837556E+02 -0.20391650672E+02  0.15355430928E+03  0.12509000000E+03 0.  0.
         25    1    1    2    0    0  0.10212575806E+03  0.50407489795E+02  0.13776849860E+02  0.16972888728E+03  0.12509000000E+03 0.  0.
<mgrwt>
<rscale>  2 0.45581467E+03</rscale>
<asrwt>0</asrwt>
<pdfrwt beam="1">  1       21 0.35861078E-01 0.45581467E+03</pdfrwt>
<pdfrwt beam="2">  1       21 0.31323873E-01 0.45581467E+03</pdfrwt>
<totfact> 0.67967083E+04</totfact>
</mgrwt>
</event>
<event>
 6    0  0.1539497E-004  0.4657912E+03  0.7546771E-02  0.1023115E+00
         21   -1    0    0  502  501  0.00000000000E+00  0.00000000000E+00  0.14355240376E+03  0.14355240376E+03  0.00000000000E+00 0. -1.
         21   -1    0    0  501  502 -0.00000000000E+00 -0.00000000000E+00 -0.37784357346E+03  0.37784357346E+03  0.00000000000E+00 0. -1.
      99925    2    1    2    0    0  0.61364503068E+02  0.49967773495E+02 -0.40560463981E+02  0.27758975281E+03  0.26296109788E+03 0.  0.
         25    1    1    2    0    0 -0.61364503068E+02 -0.49967773495E+02 -0.19373070572E+03  0.24380622442E+03  0.12509000000E+03 0.  0.
         25    1    3    3    0    0  0.10540452208E+02  0.56945519417E+01 -0.49857886944E+02  0.13519188602E+03  0.12509000000E+03 0.  0.
         25    1    3    3    0    0  0.50824050860E+02  0.44273221553E+02  0.92974229635E+01  0.14239786679E+03  0.12509000000E+03 0.  0.
<mgrwt>
<rscale>  2 0.46579117E+03</rscale>
<asrwt>0</asrwt>
<pdfrwt beam="1">  1       21 0.21110648E-01 0.46579117E+03</pdfrwt>
<pdfrwt beam="2">  1       21 0.55565231E-01 0.46579117E+03</pdfrwt>
<totfact> 0.58610433E+04</totfact>
</mgrwt>
</event>
<event>
 6    0  0.1539497E-004  0.4041353E+03  0.7546771E-02  0.1042357E+00
         21   -1    0    0  502  501  0.00000000000E+00  0.00000000000E+00  0.79844741573E+03  0.79844741573E+03  0.00000000000E+00 0. -1.
         21   -1    0    0  501  502 -0.00000000000E+00 -0.00000000000E+00 -0.51138411793E+02  0.51138411793E+02  0.00000000000E+00 0. -1.
      99925    2    1    2    0    0  0.25201804753E+02  0.18811456084E+01  0.59414537983E+03  0.65022366080E+03  0.26295133964E+03 0.  0.
         25    1    1    2    0    0 -0.25201804753E+02 -0.18811456084E+01  0.15316362410E+03  0.19936216672E+03  0.12509000000E+03 0.  0.
         25    1    3    3    0    0 -0.19357319599E+02  0.19578441314E+02  0.33156534556E+03  0.35544494322E+03  0.12509000000E+03 0.  0.
         25    1    3    3    0    0  0.44559124352E+02 -0.17697295706E+02  0.26258003427E+03  0.29477871758E+03  0.12509000000E+03 0.  0.
<mgrwt>
<rscale>  2 0.40413529E+03</rscale>
<asrwt>0</asrwt>
<pdfrwt beam="1">  1       21 0.11741873E+00 0.40413529E+03</pdfrwt>
<pdfrwt beam="2">  1       21 0.75203552E-02 0.40413529E+03</pdfrwt>
<totfact> 0.69200508E+04</totfact>
</mgrwt>
</event>
<event>
 6    0  0.1539497E-004  0.3914929E+03  0.7546771E-02  0.1046766E+00
         21   -1    0    0  502  501  0.00000000000E+00  0.00000000000E+00  0.28806619157E+03  0.28806619157E+03  0.00000000000E+00 0. -1.
         21   -1    0    0  501  502 -0.00000000000E+00 -0.00000000000E+00 -0.13301342511E+03  0.13301342511E+03  0.00000000000E+00 0. -1.
      99925    2    1    2    0    0  0.23919263208E+02  0.30960934220E+01  0.10652544549E+03  0.28475600931E+03  0.26297641976E+03 0.  0.
         25    1    3    3    0    0  0.40188531505E+02  0.27060468313E+02  0.69741850235E+02  0.15119133832E+03  0.12509000000E+03 0.  0.
         25    1    1    2    0    0 -0.23919263208E+02 -0.30960934220E+01  0.48527320959E+02  0.13632360737E+03  0.12509000000E+03 0.  0.
         25    1    3    3    0    0 -0.16269268297E+02 -0.23964374891E+02  0.36783595260E+02  0.13356467098E+03  0.12509000000E+03 0.  0.
<mgrwt>
<rscale>  2 0.39149289E+03</rscale>
<asrwt>0</asrwt>
<pdfrwt beam="1">  1       21 0.42362675E-01 0.39149289E+03</pdfrwt>
<pdfrwt beam="2">  1       21 0.19560798E-01 0.39149289E+03</pdfrwt>
<totfact> 0.12214369E+05</totfact>
</mgrwt>
</event>
<event>
 6    0  0.1539497E-004  0.4265691E+03  0.7546771E-02  0.1034949E+00
         21   -1    0    0  502  501  0.00000000000E+00  0.00000000000E+00  0.51286476638E+03  0.51286476638E+03  0.00000000000E+00 0. -1.
         21   -1    0    0  501  502 -0.00000000000E+00 -0.00000000000E+00 -0.88698415548E+02  0.88698415548E+02  0.00000000000E+00 0. -1.
      99925    2    1    2    0    0  0.77323744337E+02 -0.18632342713E+02  0.23717824485E+03  0.36294594552E+03  0.26296409242E+03 0.  0.
         25    1    3    3    0    0  0.63290014878E+02  0.17970766480E+02  0.14641235704E+03  0.20350100940E+03  0.12509000000E+03 0.  0.
         25    1    1    2    0    0 -0.77323744337E+02  0.18632342713E+02  0.18698810597E+03  0.23861723640E+03  0.12509000000E+03 0.  0.
         25    1    3    3    0    0  0.14033729459E+02 -0.36603109193E+02  0.90765887812E+02  0.15944493612E+03  0.12509000000E+03 0.  0.
<mgrwt>
<rscale>  2 0.42656907E+03</rscale>
<asrwt>0</asrwt>
<pdfrwt beam="1">  1       21 0.75421288E-01 0.42656907E+03</pdfrwt>
<pdfrwt beam="2">  1       21 0.13043885E-01 0.42656907E+03</pdfrwt>
<totfact> 0.73815820E+04</totfact>
</mgrwt>
</event>
<event>
 6    0  0.1539497E-004  0.4256936E+03  0.7546771E-02  0.1035229E+00
         21   -1    0    0  502  501  0.00000000000E+00  0.00000000000E+00  0.41723854117E+03  0.41723854117E+03  0.00000000000E+00 0. -1.
         21   -1    0    0  501  502 -0.00000000000E+00 -0.00000000000E+00 -0.10858000008E+03  0.10858000008E+03  0.00000000000E+00 0. -1.
      99925    2    1    2    0    0 -0.45190958786E+02 -0.11878470669E+02  0.11586024816E+03  0.29129346652E+03  0.26314438188E+03 0.  0.
         25    1    1    2    0    0  0.45190958786E+02  0.11878470669E+02  0.19279829292E+03  0.23452507473E+03  0.12509000000E+03 0.  0.
         25    1    3    3    0    0 -0.90636715168E-01  0.22716232136E+02  0.76463400792E+02  0.14835833370E+03  0.12509000000E+03 0.  0.
         25    1    3    3    0    0 -0.45100322071E+02 -0.34594702805E+02  0.39396847367E+02  0.14293513282E+03  0.12509000000E+03 0.  0.
<mgrwt>
<rscale>  2 0.42569360E+03</rscale>
<asrwt>0</asrwt>
<pdfrwt beam="1">  1       21 0.61358608E-01 0.42569360E+03</pdfrwt>
<pdfrwt beam="2">  1       21 0.15967647E-01 0.42569360E+03</pdfrwt>
<totfact> 0.80635574E+04</totfact>
</mgrwt>
</event>
<event>
 6    0  0.1539497E-004  0.4482729E+03  0.7546771E-02  0.1028238E+00
         21   -1    0    0  502  501  0.00000000000E+00  0.00000000000E+00  0.13360235686E+03  0.13360235686E+03  0.00000000000E+00 0.  1.
         21   -1    0    0  501  502 -0.00000000000E+00 -0.00000000000E+00 -0.37601999727E+03  0.37601999727E+03  0.00000000000E+00 0.  1.
      99925    2    1    2    0    0  0.91595422343E+02  0.29664152089E+02 -0.20581470070E+03  0.34758233867E+03  0.26302872052E+03 0.  0.
         25    1    1    2    0    0 -0.91595422343E+02 -0.29664152089E+02 -0.36602939709E+02  0.16204001545E+03  0.12509000000E+03 0.  0.
         25    1    3    3    0    0  0.78049632481E+02  0.22820832400E+02 -0.79054770568E+02  0.16884815774E+03  0.12509000000E+03 0.  0.
         25    1    3    3    0    0  0.13545789862E+02  0.68433196885E+01 -0.12675993013E+03  0.17873418094E+03  0.12509000000E+03 0.  0.
<mgrwt>
<rscale>  2 0.44827294E+03</rscale>
<asrwt>0</asrwt>
<pdfrwt beam="1">  1       21 0.19647406E-01 0.44827294E+03</pdfrwt>
<pdfrwt beam="2">  1       21 0.55297058E-01 0.44827294E+03</pdfrwt>
<totfact> 0.68166662E+04</totfact>
</mgrwt>
</event>
<event>
 6    0  0.1539497E-004  0.4888851E+03  0.7546771E-02  0.1016721E+00
         21   -1    0    0  502  501  0.00000000000E+00  0.00000000000E+00  0.20868493627E+03  0.20868493627E+03  0.00000000000E+00 0. -1.
         21   -1    0    0  501  502 -0.00000000000E+00 -0.00000000000E+00 -0.28632711869E+03  0.28632711869E+03  0.00000000000E+00 0. -1.
      99925    2    1    2    0    0 -0.24843918857E+02 -0.21792864165E+02 -0.18801549674E+03  0.32494757940E+03  0.26296188528E+03 0.  0.
         25    1    3    3    0    0 -0.16590194886E+02 -0.20860866997E+02 -0.46993742050E+02  0.13625832169E+03  0.12509000000E+03 0.  0.
         25    1    3    3    0    0 -0.82537239714E+01 -0.93199716810E+00 -0.14102175469E+03  0.18868925771E+03  0.12509000000E+03 0.  0.
         25    1    1    2    0    0  0.24843918857E+02  0.21792864165E+02  0.11037331432E+03  0.17006447556E+03  0.12509000000E+03 0.  0.
<mgrwt>
<rscale>  2 0.48888508E+03</rscale>
<asrwt>0</asrwt>
<pdfrwt beam="1">  1       21 0.30688962E-01 0.48888508E+03</pdfrwt>
<pdfrwt beam="2">  1       21 0.42106929E-01 0.48888508E+03</pdfrwt>
<totfact> 0.50578593E+04</totfact>
</mgrwt>
</event>
<event>
 6    0  0.1539497E-004  0.3949040E+03  0.7546771E-02  0.1045559E+00
         21   -1    0    0  502  501  0.00000000000E+00  0.00000000000E+00  0.71550086158E+02  0.71550086158E+02  0.00000000000E+00 0.  1.
         21   -1    0    0  501  502 -0.00000000000E+00 -0.00000000000E+00 -0.54489523639E+03  0.54489523639E+03  0.00000000000E+00 0.  1.
      99925    2    1    2    0    0  0.12042011995E+02  0.18414889130E+01 -0.26857587951E+03  0.37618220955E+03  0.26311908064E+03 0.  0.
         25    1    1    2    0    0 -0.12042011995E+02 -0.18414889130E+01 -0.20476927072E+03  0.24026311299E+03  0.12509000000E+03 0.  0.
         25    1    3    3    0    0  0.12759766078E+02  0.12308453350E+02 -0.79638991773E+02  0.14934586290E+03  0.12509000000E+03 0.  0.
         25    1    3    3    0    0 -0.71775408322E+00 -0.10466964437E+02 -0.18893688774E+03  0.22683634665E+03  0.12509000000E+03 0.  0.
<mgrwt>
<rscale>  2 0.39490404E+03</rscale>
<asrwt>0</asrwt>
<pdfrwt beam="1">  1       21 0.10522072E-01 0.39490404E+03</pdfrwt>
<pdfrwt beam="2">  1       21 0.80131650E-01 0.39490404E+03</pdfrwt>
<totfact> 0.95557418E+04</totfact>
</mgrwt>
</event>
<event>
 6    0  0.1539497E-004  0.4707069E+03  0.7546771E-02  0.1021721E+00
         21   -1    0    0  502  501  0.00000000000E+00  0.00000000000E+00  0.43327513289E+03  0.43327513289E+03  0.00000000000E+00 0.  1.
         21   -1    0    0  501  502 -0.00000000000E+00 -0.00000000000E+00 -0.12784310903E+03  0.12784310903E+03  0.00000000000E+00 0.  1.
      99925    2    1    2    0    0  0.50377698235E+02 -0.10912033350E+03  0.13991326660E+03  0.32134933909E+03  0.26314352719E+03 0.  0.
         25    1    3    3    0    0 -0.28193017685E+01 -0.84673081499E+02  0.68878557541E+02  0.16603988371E+03  0.12509000000E+03 0.  0.
         25    1    1    2    0    0 -0.50377698235E+02  0.10912033350E+03  0.16551875726E+03  0.23976890283E+03  0.12509000000E+03 0.  0.
         25    1    3    3    0    0  0.53197000004E+02 -0.24447251996E+02  0.71034709063E+02  0.15530945538E+03  0.12509000000E+03 0.  0.
<mgrwt>
<rscale>  2 0.47070687E+03</rscale>
<asrwt>0</asrwt>
<pdfrwt beam="1">  1       21 0.63716931E-01 0.47070687E+03</pdfrwt>
<pdfrwt beam="2">  1       21 0.18800457E-01 0.47070687E+03</pdfrwt>
<totfact> 0.54096476E+04</totfact>
</mgrwt>
</event>
<event>
 6    0  0.1539497E-004  0.4796436E+03  0.7546771E-02  0.1019233E+00
         21   -1    0    0  502  501  0.00000000000E+00  0.00000000000E+00  0.77033284047E+02  0.77033284047E+02  0.00000000000E+00 0.  1.
         21   -1    0    0  501  502 -0.00000000000E+00 -0.00000000000E+00 -0.74661887890E+03  0.74661887890E+03  0.00000000000E+00 0.  1.
      99925    2    1    2    0    0  0.56192978754E+02 -0.10759319145E+03 -0.31139433109E+03  0.42530252351E+03  0.26302445012E+03 0.  0.
         25    1    3    3    0    0  0.47240401872E+02 -0.67283616274E+02 -0.11473347768E+03  0.18860015797E+03  0.12509000000E+03 0.  0.
         25    1    3    3    0    0  0.89525768821E+01 -0.40309575173E+02 -0.19666085342E+03  0.23670236554E+03  0.12509000000E+03 0.  0.
         25    1    1    2    0    0 -0.56192978754E+02  0.10759319145E+03 -0.35819126376E+03  0.39834963944E+03  0.12509000000E+03 0.  0.
<mgrwt>
<rscale>  2 0.47964364E+03</rscale>
<asrwt>0</asrwt>
<pdfrwt beam="1">  1       21 0.11328424E-01 0.47964364E+03</pdfrwt>
<pdfrwt beam="2">  1       21 0.10979689E+00 0.47964364E+03</pdfrwt>
<totfact> 0.38615584E+04</totfact>
</mgrwt>
</event>
<event>
 6    0  0.1539497E-004  0.4304490E+03  0.7546771E-02  0.1033718E+00
         21   -1    0    0  502  501  0.00000000000E+00  0.00000000000E+00  0.67822258952E+03  0.67822258952E+03  0.00000000000E+00 0.  1.
         21   -1    0    0  501  502 -0.00000000000E+00 -0.00000000000E+00 -0.68298487278E+02  0.68298487278E+02  0.00000000000E+00 0.  1.
      99925    2    1    2    0    0 -0.46533431182E+02 -0.64167971862E+02  0.32597593210E+03  0.42627592030E+03  0.26299802869E+03 0.  0.
         25    1    1    2    0    0  0.46533431182E+02  0.64167971862E+02  0.28394817015E+03  0.32024515650E+03  0.12509000000E+03 0.  0.
         25    1    3    3    0    0  0.16495846192E+02 -0.29036821329E+02  0.17039648845E+03  0.21400402171E+03  0.12509000000E+03 0.  0.
         25    1    3    3    0    0 -0.63029277374E+02 -0.35131150533E+02  0.15557944365E+03  0.21227189859E+03  0.12509000000E+03 0.  0.
<mgrwt>
<rscale>  2 0.43044896E+03</rscale>
<asrwt>0</asrwt>
<pdfrwt beam="1">  1       21 0.99738613E-01 0.43044896E+03</pdfrwt>
<pdfrwt beam="2">  1       21 0.10043896E-01 0.43044896E+03</pdfrwt>
<totfact> 0.61481734E+04</totfact>
</mgrwt>
</event>
<event>
 6    0  0.1539497E-004  0.4261454E+03  0.7546771E-02  0.1035085E+00
         21   -1    0    0  502  501  0.00000000000E+00  0.00000000000E+00  0.50113970206E+03  0.50113970206E+03  0.00000000000E+00 0.  1.
         21   -1    0    0  501  502 -0.00000000000E+00 -0.00000000000E+00 -0.90593454534E+02  0.90593454534E+02  0.00000000000E+00 0.  1.
      99925    2    1    2    0    0 -0.12236863673E+02 -0.68532199026E+02  0.32936745441E+03  0.42716126444E+03  0.26293996021E+03 0.  0.
         25    1    3    3    0    0 -0.32505099557E+02 -0.56561913052E+02  0.20767954440E+03  0.25106599286E+03  0.12509000000E+03 0.  0.
         25    1    1    2    0    0  0.12236863673E+02  0.68532199026E+02  0.81178793122E+02  0.16457189216E+03  0.12509000000E+03 0.  0.
         25    1    3    3    0    0  0.20268235884E+02 -0.11970285974E+02  0.12168791000E+03  0.17609527158E+03  0.12509000000E+03 0.  0.
<mgrwt>
<rscale>  2 0.42614541E+03</rscale>
<asrwt>0</asrwt>
<pdfrwt beam="1">  1       21 0.73697013E-01 0.42614541E+03</pdfrwt>
<pdfrwt beam="2">  1       21 0.13322567E-01 0.42614541E+03</pdfrwt>
<totfact> 0.74852332E+04</totfact>
</mgrwt>
</event>
<event>
 6    0  0.1539497E-004  0.4858982E+03  0.7546771E-02  0.1017527E+00
         21   -1    0    0  502  501  0.00000000000E+00  0.00000000000E+00  0.13305513451E+03  0.13305513451E+03  0.00000000000E+00 0. -1.
         21   -1    0    0  501  502 -0.00000000000E+00 -0.00000000000E+00 -0.44360757083E+03  0.44360757083E+03  0.00000000000E+00 0. -1.
      99925    2    1    2    0    0  0.39359304515E+02 -0.12126187413E+03 -0.12132598580E+03  0.31645556738E+03  0.26300291695E+03 0.  0.
         25    1    3    3    0    0  0.59371048486E+02 -0.54085043548E+02 -0.55461242610E+02  0.15866181288E+03  0.12509000000E+03 0.  0.
         25    1    1    2    0    0 -0.39359304515E+02  0.12126187413E+03 -0.18922645052E+03  0.26020713796E+03  0.12509000000E+03 0.  0.
         25    1    3    3    0    0 -0.20011743972E+02 -0.67176830577E+02 -0.65864743192E+02  0.15779375450E+03  0.12509000000E+03 0.  0.
<mgrwt>
<rscale>  2 0.48589820E+03</rscale>
<asrwt>0</asrwt>
<pdfrwt beam="1">  1       21 0.19566932E-01 0.48589820E+03</pdfrwt>
<pdfrwt beam="2">  1       21 0.65236406E-01 0.48589820E+03</pdfrwt>
<totfact> 0.47437203E+04</totfact>
</mgrwt>
</event>
<event>
 6    0  0.1539497E-004  0.4227585E+03  0.7546771E-02  0.1036172E+00
         21   -1    0    0  502  501  0.00000000000E+00  0.00000000000E+00  0.31666787646E+03  0.31666787646E+03  0.00000000000E+00 0.  1.
         21   -1    0    0  501  502 -0.00000000000E+00 -0.00000000000E+00 -0.14109793944E+03  0.14109793944E+03  0.00000000000E+00 0.  1.
      99925    2    1    2    0    0 -0.17040390133E+02 -0.18916631387E+02  0.19523868954E+03  0.32860474683E+03  0.26308690562E+03 0.  0.
         25    1    1    2    0    0  0.17040390133E+02  0.18916631387E+02 -0.19668752525E+02  0.12916106908E+03  0.12509000000E+03 0.  0.
         25    1    3    3    0    0 -0.27156992435E+02 -0.36224570932E+02  0.69415214485E+02  0.15005233047E+03  0.12509000000E+03 0.  0.
         25    1    3    3    0    0  0.10116602302E+02  0.17307939546E+02  0.12582347506E+03  0.17855241636E+03  0.12509000000E+03 0.  0.
<mgrwt>
<rscale>  2 0.42275849E+03</rscale>
<asrwt>0</asrwt>
<pdfrwt beam="1">  1       21 0.46568805E-01 0.42275849E+03</pdfrwt>
<pdfrwt beam="2">  1       21 0.20749697E-01 0.42275849E+03</pdfrwt>
<totfact> 0.89052983E+04</totfact>
</mgrwt>
</event>
<event>
 6    0  0.1539497E-004  0.4371677E+03  0.7546771E-02  0.1031619E+00
         21   -1    0    0  502  501  0.00000000000E+00  0.00000000000E+00  0.31136761052E+02  0.31136761052E+02  0.00000000000E+00 0. -1.
         21   -1    0    0  501  502 -0.00000000000E+00 -0.00000000000E+00 -0.15344852569E+04  0.15344852569E+04  0.00000000000E+00 0. -1.
      99925    2    1    2    0    0 -0.31018343192E+02  0.18740003851E+01 -0.12855882825E+04  0.13125752474E+04  0.26296558404E+03 0.  0.
         25    1    1    2    0    0  0.31018343192E+02 -0.18740003851E+01 -0.21776021337E+03  0.25304677062E+03  0.12509000000E+03 0.  0.
         25    1    3    3    0    0 -0.48488876818E+02 -0.98093691347E+00 -0.54379524594E+03  0.56010080434E+03  0.12509000000E+03 0.  0.
         25    1    3    3    0    0  0.17470533626E+02  0.28549372986E+01 -0.74179303657E+03  0.75247444303E+03  0.12509000000E+03 0.  0.
<mgrwt>
<rscale>  2 0.43716771E+03</rscale>
<asrwt>0</asrwt>
<pdfrwt beam="1">  1       21 0.45789344E-02 0.43716771E+03</pdfrwt>
<pdfrwt beam="2">  1       21 0.22565965E+00 0.43716771E+03</pdfrwt>
<totfact> 0.25579042E+04</totfact>
</mgrwt>
</event>
<event>
 6    0  0.1539497E-004  0.3912797E+03  0.7546771E-02  0.1046842E+00
         21   -1    0    0  502  501  0.00000000000E+00  0.00000000000E+00  0.66014449793E+02  0.66014449793E+02  0.00000000000E+00 0.  1.
         21   -1    0    0  501  502 -0.00000000000E+00 -0.00000000000E+00 -0.57979667918E+03  0.57979667918E+03  0.00000000000E+00 0.  1.
      99925    2    1    2    0    0  0.21056111185E+02 -0.99269583572E+01 -0.34657595018E+03  0.43569841583E+03  0.26301390835E+03 0.  0.
         25    1    3    3    0    0  0.49955288095E+02 -0.25223640971E+01 -0.19341340674E+03  0.23570775790E+03  0.12509000000E+03 0.  0.
         25    1    1    2    0    0 -0.21056111185E+02  0.99269583572E+01 -0.16720627920E+03  0.21011271315E+03  0.12509000000E+03 0.  0.
         25    1    3    3    0    0 -0.28899176909E+02 -0.74045942601E+01 -0.15316254344E+03  0.19999065792E+03  0.12509000000E+03 0.  0.
<mgrwt>
<rscale>  2 0.39127974E+03</rscale>
<asrwt>0</asrwt>
<pdfrwt beam="1">  1       21 0.97080076E-02 0.39127974E+03</pdfrwt>
<pdfrwt beam="2">  1       21 0.85264215E-01 0.39127974E+03</pdfrwt>
<totfact> 0.95697632E+04</totfact>
</mgrwt>
</event>
<event>
 6    0  0.1539497E-004  0.4020329E+03  0.7546771E-02  0.1043078E+00
         21   -1    0    0  502  501  0.00000000000E+00  0.00000000000E+00  0.61052721631E+02  0.61052721631E+02  0.00000000000E+00 0. -1.
         21   -1    0    0  501  502 -0.00000000000E+00 -0.00000000000E+00 -0.66184782216E+03  0.66184782216E+03  0.00000000000E+00 0. -1.
      99925    2    1    2    0    0 -0.46435804229E+02 -0.11616726963E+02 -0.36953657595E+03  0.45565674957E+03  0.26224904233E+03 0.  0.
         25    1    3    3    0    0 -0.17446393888E+02  0.33177675120E+02 -0.18182726620E+03  0.22386111234E+03  0.12509000000E+03 0.  0.
         25    1    1    2    0    0  0.46435804229E+02  0.11616726963E+02 -0.23125852457E+03  0.26724379422E+03  0.12509000000E+03 0.  0.
         25    1    3    3    0    0 -0.28989410341E+02 -0.44794402083E+02 -0.18770930976E+03  0.23179563723E+03  0.12509000000E+03 0.  0.
<mgrwt>
<rscale>  2 0.40203289E+03</rscale>
<asrwt>0</asrwt>
<pdfrwt beam="1">  1       21 0.89783406E-02 0.40203289E+03</pdfrwt>
<pdfrwt beam="2">  1       21 0.97330571E-01 0.40203289E+03</pdfrwt>
<totfact> 0.80236120E+04</totfact>
</mgrwt>
</event>
<event>
 6    0  0.1539497E-004  0.4119735E+03  0.7546771E-02  0.1039711E+00
         21   -1    0    0  502  501  0.00000000000E+00  0.00000000000E+00  0.19023443242E+04  0.19023443242E+04  0.00000000000E+00 0.  1.
         21   -1    0    0  501  502 -0.00000000000E+00 -0.00000000000E+00 -0.22304342393E+02  0.22304342393E+02  0.00000000000E+00 0.  1.
      99925    2    1    2    0    0 -0.53025672668E+02  0.20077512218E+02  0.10843188169E+04  0.11171621287E+04  0.26284804871E+03 0.  0.
         25    1    1    2    0    0  0.53025672668E+02 -0.20077512218E+02  0.79572116495E+03  0.80748653791E+03  0.12509000000E+03 0.  0.
         25    1    3    3    0    0 -0.21662997493E+02  0.11363272993E+02  0.70489963556E+03  0.71633051991E+03  0.12509000000E+03 0.  0.
         25    1    3    3    0    0 -0.31362675175E+02  0.87142392246E+01  0.37941918130E+03  0.40083160878E+03  0.12509000000E+03 0.  0.
<mgrwt>
<rscale>  2 0.41197349E+03</rscale>
<asrwt>0</asrwt>
<pdfrwt beam="1">  1       21 0.27975641E+00 0.41197349E+03</pdfrwt>
<pdfrwt beam="2">  1       21 0.32800516E-02 0.41197349E+03</pdfrwt>
<totfact> 0.21234685E+04</totfact>
</mgrwt>
</event>
<event>
 6    0  0.1539497E-004  0.4293255E+03  0.7546771E-02  0.1034073E+00
         21   -1    0    0  502  501  0.00000000000E+00  0.00000000000E+00  0.14912383351E+03  0.14912383351E+03  0.00000000000E+00 0. -1.
         21   -1    0    0  501  502 -0.00000000000E+00 -0.00000000000E+00 -0.30900557135E+03  0.30900557135E+03  0.00000000000E+00 0. -1.
      99925    2    1    2    0    0 -0.57591683850E+02 -0.36350869478E+02 -0.45415458930E+02  0.27540495420E+03  0.26295843232E+03 0.  0.
         25    1    1    2    0    0  0.57591683850E+02  0.36350869478E+02 -0.11446627891E+03  0.18272445065E+03  0.12509000000E+03 0.  0.
         25    1    3    3    0    0 -0.47227865790E+02  0.16301951965E+02 -0.33288176173E+02  0.13875098457E+03  0.12509000000E+03 0.  0.
         25    1    3    3    0    0 -0.10363818060E+02 -0.52652821443E+02 -0.12127282757E+02  0.13665396964E+03  0.12509000000E+03 0.  0.
<mgrwt>
<rscale>  2 0.42932550E+03</rscale>
<asrwt>0</asrwt>
<pdfrwt beam="1">  1       21 0.21929976E-01 0.42932550E+03</pdfrwt>
<pdfrwt beam="2">  1       21 0.45441996E-01 0.42932550E+03</pdfrwt>
<totfact> 0.84224021E+04</totfact>
</mgrwt>
</event>
<event>
 6    0  0.1539497E-004  0.4004839E+03  0.7546771E-02  0.1043612E+00
         21   -1    0    0  502  501  0.00000000000E+00  0.00000000000E+00  0.84759870237E+02  0.84759870237E+02  0.00000000000E+00 0. -1.
         21   -1    0    0  501  502 -0.00000000000E+00 -0.00000000000E+00 -0.47306390264E+03  0.47306390264E+03  0.00000000000E+00 0. -1.
      99925    2    1    2    0    0 -0.25295046592E+02 -0.39013785876E+02 -0.25770860769E+03  0.37110315825E+03  0.26294849822E+03 0.  0.
         25    1    3    3    0    0 -0.30023238575E+02 -0.51180127233E+02 -0.10809642525E+03  0.17565063487E+03  0.12509000000E+03 0.  0.
         25    1    1    2    0    0  0.25295046592E+02  0.39013785876E+02 -0.13059542471E+03  0.18672061462E+03  0.12509000000E+03 0.  0.
         25    1    3    3    0    0  0.47281919826E+01  0.12166341357E+02 -0.14961218245E+03  0.19545252339E+03  0.12509000000E+03 0.  0.
<mgrwt>
<rscale>  2 0.40048388E+03</rscale>
<asrwt>0</asrwt>
<pdfrwt beam="1">  1       21 0.12464687E-01 0.40048388E+03</pdfrwt>
<pdfrwt beam="2">  1       21 0.69568221E-01 0.40048388E+03</pdfrwt>
<totfact> 0.96821777E+04</totfact>
</mgrwt>
</event>
<event>
 6    0  0.1539497E-004  0.4118108E+03  0.7546771E-02  0.1039765E+00
         21   -1    0    0  502  501  0.00000000000E+00  0.00000000000E+00  0.88159558363E+02  0.88159558363E+02  0.00000000000E+00 0. -1.
         21   -1    0    0  501  502 -0.00000000000E+00 -0.00000000000E+00 -0.48091261575E+03  0.48091261575E+03  0.00000000000E+00 0. -1.
      99925    2    1    2    0    0 -0.63719606165E+02  0.13327536760E+01 -0.24185270214E+03  0.36296446015E+03  0.26303707981E+03 0.  0.
         25    1    3    3    0    0 -0.73053817115E+02  0.27634275893E+01 -0.12085580342E+03  0.18867466721E+03  0.12509000000E+03 0.  0.
         25    1    1    2    0    0  0.63719606165E+02 -0.13327536760E+01 -0.15090035524E+03  0.20610771396E+03  0.12509000000E+03 0.  0.
         25    1    3    3    0    0  0.93342109508E+01 -0.14306739133E+01 -0.12099689872E+03  0.17428979294E+03  0.12509000000E+03 0.  0.
<mgrwt>
<rscale>  2 0.41181085E+03</rscale>
<asrwt>0</asrwt>
<pdfrwt beam="1">  1       21 0.12964641E-01 0.41181085E+03</pdfrwt>
<pdfrwt beam="2">  1       21 0.70722444E-01 0.41181085E+03</pdfrwt>
<totfact> 0.86629939E+04</totfact>
</mgrwt>
</event>
<event>
 6    0  0.1539497E-004  0.4333164E+03  0.7546771E-02  0.1032817E+00
         21   -1    0    0  502  501  0.00000000000E+00  0.00000000000E+00  0.28872927442E+03  0.28872927442E+03  0.00000000000E+00 0. -1.
         21   -1    0    0  501  502 -0.00000000000E+00 -0.00000000000E+00 -0.16257714655E+03  0.16257714655E+03  0.00000000000E+00 0. -1.
      99925    2    1    2    0    0  0.28005352719E+01  0.53665001295E+02  0.15811303799E+03  0.31146085173E+03  0.26290750087E+03 0.  0.
         25    1    3    3    0    0  0.20530076952E+01  0.62369726816E+01  0.36011693569E+02  0.13033596911E+03  0.12509000000E+03 0.  0.
         25    1    1    2    0    0 -0.28005352719E+01 -0.53665001295E+02 -0.31960910114E+02  0.13984556924E+03  0.12509000000E+03 0.  0.
         25    1    3    3    0    0  0.74752757669E+00  0.47428028613E+02  0.12210134442E+03  0.18112488262E+03  0.12509000000E+03 0.  0.
<mgrwt>
<rscale>  2 0.43331643E+03</rscale>
<asrwt>0</asrwt>
<pdfrwt beam="1">  1       21 0.42460187E-01 0.43331643E+03</pdfrwt>
<pdfrwt beam="2">  1       21 0.23908404E-01 0.43331643E+03</pdfrwt>
<totfact> 0.82088784E+04</totfact>
</mgrwt>
</event>
<event>
 6    0  0.1539497E-004  0.4206922E+03  0.7546771E-02  0.1036841E+00
         21   -1    0    0  502  501  0.00000000000E+00  0.00000000000E+00  0.88153090296E+03  0.88153090296E+03  0.00000000000E+00 0. -1.
         21   -1    0    0  501  502 -0.00000000000E+00 -0.00000000000E+00 -0.50191638685E+02  0.50191638685E+02  0.00000000000E+00 0. -1.
      99925    2    1    2    0    0 -0.27988950977E+02 -0.66551174480E+02  0.48396636369E+03  0.55552062729E+03  0.26299674136E+03 0.  0.
         25    1    3    3    0    0  0.61534631321E+01  0.30767247400E+01  0.23488403926E+03  0.26620546828E+03  0.12509000000E+03 0.  0.
         25    1    3    3    0    0 -0.34142414109E+02 -0.69627899220E+02  0.24908232443E+03  0.28931515901E+03  0.12509000000E+03 0.  0.
         25    1    1    2    0    0  0.27988950977E+02  0.66551174480E+02  0.34737290058E+03  0.37620191435E+03  0.12509000000E+03 0.  0.
<mgrwt>
<rscale>  2 0.42069219E+03</rscale>
<asrwt>0</asrwt>
<pdfrwt beam="1">  1       21 0.12963689E+00 0.42069219E+03</pdfrwt>
<pdfrwt beam="2">  1       21 0.73811239E-02 0.42069219E+03</pdfrwt>
<totfact> 0.55304515E+04</totfact>
</mgrwt>
</event>
<event>
 6    0  0.1539497E-004  0.4248741E+03  0.7546771E-02  0.1035492E+00
         21   -1    0    0  502  501  0.00000000000E+00  0.00000000000E+00  0.32632857394E+02  0.32632857394E+02  0.00000000000E+00 0. -1.
         21   -1    0    0  501  502 -0.00000000000E+00 -0.00000000000E+00 -0.13829469343E+04  0.13829469343E+04  0.00000000000E+00 0. -1.
      99925    2    1    2    0    0 -0.33014600907E+02 -0.30889215210E+02 -0.64771088654E+03  0.70049737777E+03  0.26291267796E+03 0.  0.
         25    1    3    3    0    0  0.51172588775E+01 -0.36849394757E+01 -0.22922272693E+03  0.26120936384E+03  0.12509000000E+03 0.  0.
         25    1    1    2    0    0  0.33014600907E+02  0.30889215210E+02 -0.70260319040E+03  0.71508241395E+03  0.12509000000E+03 0.  0.
         25    1    3    3    0    0 -0.38131859785E+02 -0.27204275735E+02 -0.41848815961E+03  0.43928801393E+03  0.12509000000E+03 0.  0.
<mgrwt>
<rscale>  2 0.42487415E+03</rscale>
<asrwt>0</asrwt>
<pdfrwt beam="1">  1       21 0.47989498E-02 0.42487415E+03</pdfrwt>
<pdfrwt beam="2">  1       21 0.20337454E+00 0.42487415E+03</pdfrwt>
<totfact> 0.32994230E+04</totfact>
</mgrwt>
</event>
<event>
 6    0  0.1539497E-004  0.4741284E+03  0.7546771E-02  0.1020761E+00
         21   -1    0    0  502  501  0.00000000000E+00  0.00000000000E+00  0.84383332061E+02  0.84383332061E+02  0.00000000000E+00 0. -1.
         21   -1    0    0  501  502 -0.00000000000E+00 -0.00000000000E+00 -0.66600172806E+03  0.66600172806E+03  0.00000000000E+00 0. -1.
      99925    2    1    2    0    0 -0.12052842503E+03  0.39965813636E+02 -0.40640872462E+03  0.50044445809E+03  0.26296812864E+03 0.  0.
         25    1    3    3    0    0 -0.61040611616E+02  0.25256633829E+02 -0.27348643781E+03  0.30790614412E+03  0.12509000000E+03 0.  0.
         25    1    3    3    0    0 -0.59487813417E+02  0.14709179806E+02 -0.13292228681E+03  0.19253831397E+03  0.12509000000E+03 0.  0.
         25    1    1    2    0    0  0.12052842503E+03 -0.39965813636E+02 -0.17520967138E+03  0.24994060203E+03  0.12509000000E+03 0.  0.
<mgrwt>
<rscale>  2 0.47412844E+03</rscale>
<asrwt>0</asrwt>
<pdfrwt beam="1">  1       21 0.12409314E-01 0.47412844E+03</pdfrwt>
<pdfrwt beam="2">  1       21 0.97941429E-01 0.47412844E+03</pdfrwt>
<totfact> 0.43355866E+04</totfact>
</mgrwt>
</event>
<event>
 6    0  0.1539497E-004  0.4279837E+03  0.7546771E-02  0.1034499E+00
         21   -1    0    0  502  501  0.00000000000E+00  0.00000000000E+00  0.32383646642E+03  0.32383646642E+03  0.00000000000E+00 0.  1.
         21   -1    0    0  501  502 -0.00000000000E+00 -0.00000000000E+00 -0.14140631548E+03  0.14140631548E+03  0.00000000000E+00 0.  1.
      99925    2    1    2    0    0 -0.78772915210E+02  0.31520507100E+02  0.10678187928E+03  0.29621945912E+03  0.26295414749E+03 0.  0.
         25    1    3    3    0    0 -0.41282340825E+02 -0.34399827787E+01  0.90946952092E+02  0.16010909200E+03  0.12509000000E+03 0.  0.
         25    1    1    2    0    0  0.78772915210E+02 -0.31520507100E+02  0.75648271664E+02  0.16902332278E+03  0.12509000000E+03 0.  0.
         25    1    3    3    0    0 -0.37490574386E+02  0.34960489878E+02  0.15834927186E+02  0.13611036713E+03  0.12509000000E+03 0.  0.
<mgrwt>
<rscale>  2 0.42798375E+03</rscale>
<asrwt>0</asrwt>
<pdfrwt beam="1">  1       21 0.47623010E-01 0.42798375E+03</pdfrwt>
<pdfrwt beam="2">  1       21 0.20795046E-01 0.42798375E+03</pdfrwt>
<totfact> 0.84509933E+04</totfact>
</mgrwt>
</event>
<event>
 6    0  0.1539497E-004  0.4766773E+03  0.7546771E-02  0.1020052E+00
         21   -1    0    0  502  501  0.00000000000E+00  0.00000000000E+00  0.20146774770E+03  0.20146774770E+03  0.00000000000E+00 0. -1.
         21   -1    0    0  501  502 -0.00000000000E+00 -0.00000000000E+00 -0.28195739832E+03  0.28195739832E+03  0.00000000000E+00 0. -1.
      99925    2    1    2    0    0 -0.78144225779E+02  0.10152003994E+03 -0.15857169349E+02  0.29306311129E+03  0.26310016885E+03 0.  0.
         25    1    3    3    0    0 -0.43328429030E+02  0.87236731778E+02  0.13705109181E+02  0.15913182664E+03  0.12509000000E+03 0.  0.
         25    1    3    3    0    0 -0.34815796749E+02  0.14283308159E+02 -0.29562278530E+02  0.13393128465E+03  0.12509000000E+03 0.  0.
         25    1    1    2    0    0  0.78144225779E+02 -0.10152003994E+03 -0.64632481269E+02  0.19036203473E+03  0.12509000000E+03 0.  0.
<mgrwt>
<rscale>  2 0.47667734E+03</rscale>
<asrwt>0</asrwt>
<pdfrwt beam="1">  1       21 0.29627610E-01 0.47667734E+03</pdfrwt>
<pdfrwt beam="2">  1       21 0.41464323E-01 0.47667734E+03</pdfrwt>
<totfact> 0.56146753E+04</totfact>
</mgrwt>
</event>
<event>
 6    0  0.1539497E-004  0.3918575E+03  0.7546771E-02  0.1046636E+00
         21   -1    0    0  502  501  0.00000000000E+00  0.00000000000E+00  0.21829716408E+03  0.21829716408E+03  0.00000000000E+00 0.  1.
         21   -1    0    0  501  502 -0.00000000000E+00 -0.00000000000E+00 -0.17585235254E+03  0.17585235254E+03  0.00000000000E+00 0.  1.
      99925    2    1    2    0    0 -0.34455887987E+01 -0.24975023897E+02  0.28207617839E+02  0.26575236056E+03  0.26304566816E+03 0.  0.
         25    1    3    3    0    0 -0.42245657054E+02 -0.13391805781E+02  0.17049947865E+02  0.13379927064E+03  0.12509000000E+03 0.  0.
         25    1    1    2    0    0  0.34455887987E+01  0.24975023897E+02  0.14237193706E+02  0.12839715606E+03  0.12509000000E+03 0.  0.
         25    1    3    3    0    0  0.38800068255E+02 -0.11583218116E+02  0.11157669974E+02  0.13195308991E+03  0.12509000000E+03 0.  0.
<mgrwt>
<rscale>  2 0.39185747E+03</rscale>
<asrwt>0</asrwt>
<pdfrwt beam="1">  1       21 0.32102524E-01 0.39185747E+03</pdfrwt>
<pdfrwt beam="2">  1       21 0.25860640E-01 0.39185747E+03</pdfrwt>
<totfact> 0.12554532E+05</totfact>
</mgrwt>
</event>
<event>
 6    0  0.1539497E-004  0.4481620E+03  0.7546771E-02  0.1028272E+00
         21   -1    0    0  502  501  0.00000000000E+00  0.00000000000E+00  0.99252669993E+03  0.99252669993E+03  0.00000000000E+00 0. -1.
         21   -1    0    0  501  502 -0.00000000000E+00 -0.00000000000E+00 -0.50590375599E+02  0.50590375599E+02  0.00000000000E+00 0. -1.
      99925    2    1    2    0    0 -0.78484634350E+02  0.25427745476E+02  0.43924463580E+03  0.51856693504E+03  0.26300077561E+03 0.  0.
         25    1    3    3    0    0 -0.57506321038E+02  0.71114142815E+01  0.29496608508E+03  0.32559184360E+03  0.12509000000E+03 0.  0.
         25    1    1    2    0    0  0.78484634350E+02 -0.25427745476E+02  0.50269168853E+03  0.52455014049E+03  0.12509000000E+03 0.  0.
         25    1    3    3    0    0 -0.20978313312E+02  0.18316331194E+02  0.14427855072E+03  0.19297509144E+03  0.12509000000E+03 0.  0.
<mgrwt>
<rscale>  2 0.44816202E+03</rscale>
<asrwt>0</asrwt>
<pdfrwt beam="1">  1       21 0.14595980E+00 0.44816202E+03</pdfrwt>
<pdfrwt beam="2">  1       21 0.74397617E-02 0.44816202E+03</pdfrwt>
<totfact> 0.39602947E+04</totfact>
</mgrwt>
</event>
<event>
 6    0  0.1539497E-004  0.4313078E+03  0.7546771E-02  0.1033448E+00
         21   -1    0    0  502  501  0.00000000000E+00  0.00000000000E+00  0.25740770824E+02  0.25740770824E+02  0.00000000000E+00 0. -1.
         21   -1    0    0  501  502 -0.00000000000E+00 -0.00000000000E+00 -0.18067294717E+04  0.18067294717E+04  0.00000000000E+00 0. -1.
      99925    2    1    2    0    0  0.45085415777E+02 -0.12147362266E+02 -0.82405071222E+03  0.86626215140E+03  0.26300244392E+03 0.  0.
         25    1    1    2    0    0 -0.45085415777E+02  0.12147362266E+02 -0.95693798862E+03  0.96620809109E+03  0.12509000000E+03 0.  0.
         25    1    3    3    0    0  0.54813089260E+02  0.13891706406E+02 -0.47474554548E+03  0.49419459255E+03  0.12509000000E+03 0.  0.
         25    1    3    3    0    0 -0.97276734824E+01 -0.26039068672E+02 -0.34930516675E+03  0.37206755885E+03  0.12509000000E+03 0.  0.
<mgrwt>
<rscale>  2 0.43130782E+03</rscale>
<asrwt>0</asrwt>
<pdfrwt beam="1">  1       21 0.37854066E-02 0.43130782E+03</pdfrwt>
<pdfrwt beam="2">  1       21 0.26569557E+00 0.43130782E+03</pdfrwt>
<totfact> 0.20091863E+04</totfact>
</mgrwt>
</event>
<event>
 6    0  0.1539497E-004  0.4165099E+03  0.7546771E-02  0.1038208E+00
         21   -1    0    0  502  501  0.00000000000E+00  0.00000000000E+00  0.13180383880E+03  0.13180383880E+03  0.00000000000E+00 0.  1.
         21   -1    0    0  501  502 -0.00000000000E+00 -0.00000000000E+00 -0.32905046000E+03  0.32905046000E+03  0.00000000000E+00 0.  1.
      99925    2    1    2    0    0  0.54203200088E+02  0.45974984616E+02 -0.12222723940E+03  0.29859801431E+03  0.26300112165E+03 0.  0.
         25    1    1    2    0    0 -0.54203200088E+02 -0.45974984616E+02 -0.75019381796E+02  0.16225628449E+03  0.12509000000E+03 0.  0.
         25    1    3    3    0    0  0.33203875932E+02 -0.46681647199E+01 -0.27521004241E+02  0.13239789618E+03  0.12509000000E+03 0.  0.
         25    1    3    3    0    0  0.20999324156E+02  0.50643149336E+02 -0.94706235155E+02  0.16620011813E+03  0.12509000000E+03 0.  0.
<mgrwt>
<rscale>  2 0.41650985E+03</rscale>
<asrwt>0</asrwt>
<pdfrwt beam="1">  1       21 0.19382918E-01 0.41650985E+03</pdfrwt>
<pdfrwt beam="2">  1       21 0.48389773E-01 0.41650985E+03</pdfrwt>
<totfact> 0.93615989E+04</totfact>
</mgrwt>
</event>
<event>
 6    0  0.1539497E-004  0.4132009E+03  0.7546771E-02  0.1039302E+00
         21   -1    0    0  502  501  0.00000000000E+00  0.00000000000E+00  0.12355368150E+03  0.12355368150E+03  0.00000000000E+00 0.  1.
         21   -1    0    0  501  502 -0.00000000000E+00 -0.00000000000E+00 -0.34546727905E+03  0.34546727905E+03  0.00000000000E+00 0.  1.
      99925    2    1    2    0    0  0.25266197659E+02 -0.34764187111E+02 -0.87596690874E+02  0.28051242237E+03  0.26299640568E+03 0.  0.
         25    1    1    2    0    0 -0.25266197659E+02  0.34764187111E+02 -0.13431690667E+03  0.18850853818E+03  0.12509000000E+03 0.  0.
         25    1    3    3    0    0  0.36367318125E+02  0.11050379411E+02 -0.25872940698E+02  0.13327268990E+03  0.12509000000E+03 0.  0.
         25    1    3    3    0    0 -0.11101120467E+02 -0.45814566522E+02 -0.61723750176E+02  0.14723973247E+03  0.12509000000E+03 0.  0.
<mgrwt>
<rscale>  2 0.41320094E+03</rscale>
<asrwt>0</asrwt>
<pdfrwt beam="1">  1       21 0.18169660E-01 0.41320094E+03</pdfrwt>
<pdfrwt beam="2">  1       21 0.50804010E-01 0.41320094E+03</pdfrwt>
<totfact> 0.95458267E+04</totfact>
</mgrwt>
</event>
<event>
 6    0  0.1539497E-004  0.4158229E+03  0.7546771E-02  0.1038434E+00
         21   -1    0    0  502  501  0.00000000000E+00  0.00000000000E+00  0.13734919913E+03  0.13734919913E+03  0.00000000000E+00 0.  1.
         21   -1    0    0  501  502 -0.00000000000E+00 -0.00000000000E+00 -0.31472455625E+03  0.31472455625E+03  0.00000000000E+00 0.  1.
      99925    2    1    2    0    0  0.41419986520E+02 -0.26440815435E+02 -0.17102468863E+03  0.31752795985E+03  0.26298256437E+03 0.  0.
         25    1    3    3    0    0 -0.12375395066E+02 -0.17105663611E+02 -0.54518430183E+02  0.13807795429E+03  0.12509000000E+03 0.  0.
         25    1    1    2    0    0 -0.41419986520E+02  0.26440815435E+02 -0.63506684977E+01  0.13454579553E+03  0.12509000000E+03 0.  0.
         25    1    3    3    0    0  0.53795381586E+02 -0.93351518244E+01 -0.11650625844E+03  0.17945000556E+03  0.12509000000E+03 0.  0.
<mgrwt>
<rscale>  2 0.41582287E+03</rscale>
<asrwt>0</asrwt>
<pdfrwt beam="1">  1       21 0.20198412E-01 0.41582287E+03</pdfrwt>
<pdfrwt beam="2">  1       21 0.46283023E-01 0.41582287E+03</pdfrwt>
<totfact> 0.95093471E+04</totfact>
</mgrwt>
</event>
<event>
 6    0  0.1539497E-004  0.4140871E+03  0.7546771E-02  0.1039008E+00
         21   -1    0    0  502  501  0.00000000000E+00  0.00000000000E+00  0.13165068230E+03  0.13165068230E+03  0.00000000000E+00 0.  1.
         21   -1    0    0  501  502 -0.00000000000E+00 -0.00000000000E+00 -0.32561191883E+03  0.32561191883E+03  0.00000000000E+00 0.  1.
      99925    2    1    2    0    0 -0.38280993276E+02 -0.11873847606E+02 -0.18807422369E+03  0.32577652688E+03  0.26296769601E+03 0.  0.
         25    1    3    3    0    0 -0.90188914254E+01 -0.19090592594E+02 -0.13868312328E+03  0.18795294068E+03  0.12509000000E+03 0.  0.
         25    1    1    2    0    0  0.38280993276E+02  0.11873847606E+02 -0.58870128416E+01  0.13148607426E+03  0.12509000000E+03 0.  0.
         25    1    3    3    0    0 -0.29262101850E+02  0.72167449873E+01 -0.49391100405E+02  0.13782358620E+03  0.12509000000E+03 0.  0.
<mgrwt>
<rscale>  2 0.41408710E+03</rscale>
<asrwt>0</asrwt>
<pdfrwt beam="1">  1       21 0.19360395E-01 0.41408710E+03</pdfrwt>
<pdfrwt beam="2">  1       21 0.47884105E-01 0.41408710E+03</pdfrwt>
<totfact> 0.95973912E+04</totfact>
</mgrwt>
</event>
<event>
 6    0  0.1539497E-004  0.4348560E+03  0.7546771E-02  0.1032337E+00
         21   -1    0    0  502  501  0.00000000000E+00  0.00000000000E+00  0.17783941910E+03  0.17783941910E+03  0.00000000000E+00 0. -1.
         21   -1    0    0  501  502 -0.00000000000E+00 -0.00000000000E+00 -0.26582932217E+03  0.26582932217E+03  0.00000000000E+00 0. -1.
      99925    2    1    2    0    0  0.87052353235E+01  0.16497440965E+02  0.36610096977E+02  0.26612828168E+03  0.26293728611E+03 0.  0.
         25    1    3    3    0    0  0.56386057504E+01 -0.20839766052E+02 -0.10352075254E+02  0.12736076039E+03  0.12509000000E+03 0.  0.
         25    1    1    2    0    0 -0.87052353235E+01 -0.16497440965E+02 -0.12460000005E+03  0.17754045960E+03  0.12509000000E+03 0.  0.
         25    1    3    3    0    0  0.30666295731E+01  0.37337207018E+02  0.46962172231E+02  0.13876752129E+03  0.12509000000E+03 0.  0.
<mgrwt>
<rscale>  2 0.43485599E+03</rscale>
<asrwt>0</asrwt>
<pdfrwt beam="1">  1       21 0.26152856E-01 0.43485599E+03</pdfrwt>
<pdfrwt beam="2">  1       21 0.39092547E-01 0.43485599E+03</pdfrwt>
<totfact> 0.81744542E+04</totfact>
</mgrwt>
</event>
<event>
 6    0  0.1539497E-004  0.4111403E+03  0.7546771E-02  0.1039989E+00
         21   -1    0    0  502  501  0.00000000000E+00  0.00000000000E+00  0.33402283605E+03  0.33402283605E+03  0.00000000000E+00 0.  1.
         21   -1    0    0  501  502 -0.00000000000E+00 -0.00000000000E+00 -0.12651553745E+03  0.12651553745E+03  0.00000000000E+00 0.  1.
      99925    2    1    2    0    0  0.31114350474E+02  0.56063669248E+02  0.13248023280E+03  0.30120285795E+03  0.26279442866E+03 0.  0.
         25    1    1    2    0    0 -0.31114350474E+02 -0.56063669248E+02  0.75027065803E+02  0.15933551556E+03  0.12509000000E+03 0.  0.
         25    1    3    3    0    0 -0.10954484953E+02  0.32498515328E+02  0.31806263402E+02  0.13354887020E+03  0.12509000000E+03 0.  0.
         25    1    3    3    0    0  0.42068835427E+02  0.23565153920E+02  0.10067396940E+03  0.16765398775E+03  0.12509000000E+03 0.  0.
<mgrwt>
<rscale>  2 0.41114026E+03</rscale>
<asrwt>0</asrwt>
<pdfrwt beam="1">  1       21 0.49121005E-01 0.41114026E+03</pdfrwt>
<pdfrwt beam="2">  1       21 0.18605226E-01 0.41114026E+03</pdfrwt>
<totfact> 0.98100618E+04</totfact>
</mgrwt>
</event>
<event>
 6    0  0.1539497E-004  0.4467707E+03  0.7546771E-02  0.1028689E+00
         21   -1    0    0  502  501  0.00000000000E+00  0.00000000000E+00  0.12310927983E+04  0.12310927983E+04  0.00000000000E+00 0. -1.
         21   -1    0    0  501  502 -0.00000000000E+00 -0.00000000000E+00 -0.40533924733E+02  0.40533924733E+02  0.00000000000E+00 0. -1.
      99925    2    1    2    0    0  0.61245430190E+02  0.46839440356E+02  0.95842921058E+03  0.99689662925E+03  0.26319460827E+03 0.  0.
         25    1    3    3    0    0  0.40571277980E+02  0.62146101369E+02  0.55456659415E+03  0.57332345317E+03  0.12509000000E+03 0.  0.
         25    1    1    2    0    0 -0.61245430190E+02 -0.46839440356E+02  0.23212966299E+03  0.27473009379E+03  0.12509000000E+03 0.  0.
         25    1    3    3    0    0  0.20674152210E+02 -0.15306661013E+02  0.40386261643E+03  0.42357317607E+03  0.12509000000E+03 0.  0.
<mgrwt>
<rscale>  2 0.44677074E+03</rscale>
<asrwt>0</asrwt>
<pdfrwt beam="1">  1       21 0.18104303E+00 0.44677074E+03</pdfrwt>
<pdfrwt beam="2">  1       21 0.59608721E-02 0.44677074E+03</pdfrwt>
<totfact> 0.31946822E+04</totfact>
</mgrwt>
</event>
<event>
 6    0  0.1539497E-004  0.4860746E+03  0.7546771E-02  0.1017479E+00
         21   -1    0    0  502  501  0.00000000000E+00  0.00000000000E+00  0.24568745723E+03  0.24568745723E+03  0.00000000000E+00 0. -1.
         21   -1    0    0  501  502 -0.00000000000E+00 -0.00000000000E+00 -0.24041576887E+03  0.24041576887E+03  0.00000000000E+00 0. -1.
      99925    2    1    2    0    0  0.23311194589E+02 -0.80727831463E+02  0.11568316494E+03  0.29929156472E+03  0.26293050698E+03 0.  0.
         25    1    3    3    0    0 -0.11200442855E+02 -0.65855678249E+01  0.41433897425E+02  0.13241259600E+03  0.12509000000E+03 0.  0.
         25    1    3    3    0    0  0.34511637444E+02 -0.74142263638E+02  0.74249267510E+02  0.16687896872E+03  0.12509000000E+03 0.  0.
         25    1    1    2    0    0 -0.23311194589E+02  0.80727831463E+02 -0.11041147658E+03  0.18681166138E+03  0.12509000000E+03 0.  0.
<mgrwt>
<rscale>  2 0.48607464E+03</rscale>
<asrwt>0</asrwt>
<pdfrwt beam="1">  1       21 0.36130508E-01 0.48607464E+03</pdfrwt>
<pdfrwt beam="2">  1       21 0.35355260E-01 0.48607464E+03</pdfrwt>
<totfact> 0.52145811E+04</totfact>
</mgrwt>
</event>
<event>
 6    0  0.1539497E-004  0.4438242E+03  0.7546771E-02  0.1029580E+00
         21   -1    0    0  502  501  0.00000000000E+00  0.00000000000E+00  0.13981576781E+03  0.13981576781E+03  0.00000000000E+00 0.  1.
         21   -1    0    0  501  502 -0.00000000000E+00 -0.00000000000E+00 -0.35221340890E+03  0.35221340890E+03  0.00000000000E+00 0.  1.
      99925    2    1    2    0    0 -0.75479183973E+02  0.65497585991E+01 -0.21132893591E+03  0.34578056379E+03  0.26299101238E+03 0.  0.
         25    1    1    2    0    0  0.75479183973E+02 -0.65497585991E+01 -0.10687051860E+01  0.14624861292E+03  0.12509000000E+03 0.  0.
         25    1    3    3    0    0 -0.20724565249E+02 -0.29616343165E+02 -0.79468596515E+02  0.15254311299E+03  0.12509000000E+03 0.  0.
         25    1    3    3    0    0 -0.54754618725E+02  0.36166101764E+02 -0.13186033939E+03  0.19323745080E+03  0.12509000000E+03 0.  0.
<mgrwt>
<rscale>  2 0.44382424E+03</rscale>
<asrwt>0</asrwt>
<pdfrwt beam="1">  1       21 0.20561143E-01 0.44382424E+03</pdfrwt>
<pdfrwt beam="2">  1       21 0.51796089E-01 0.44382424E+03</pdfrwt>
<totfact> 0.72014168E+04</totfact>
</mgrwt>
</event>
<event>
 6    0  0.1539497E-004  0.4615140E+03  0.7546771E-02  0.1024343E+00
         21   -1    0    0  502  501  0.00000000000E+00  0.00000000000E+00  0.30265720739E+03  0.30265720739E+03  0.00000000000E+00 0. -1.
         21   -1    0    0  501  502 -0.00000000000E+00 -0.00000000000E+00 -0.17593763664E+03  0.17593763664E+03  0.00000000000E+00 0. -1.
      99925    2    1    2    0    0 -0.18037965242E+02  0.20529143649E+01  0.20134621318E+03  0.33180851460E+03  0.26311026235E+03 0.  0.
         25    1    1    2    0    0  0.18037965242E+02 -0.20529143649E+01 -0.74626642431E+02  0.14678632943E+03  0.12509000000E+03 0.  0.
         25    1    3    3    0    0 -0.13475341190E+02 -0.39462317651E+02  0.10093066395E+03  0.16605230007E+03  0.12509000000E+03 0.  0.
         25    1    3    3    0    0 -0.45626240516E+01  0.41515232016E+02  0.10041554923E+03  0.16575621453E+03  0.12509000000E+03 0.  0.
<mgrwt>
<rscale>  2 0.46151400E+03</rscale>
<asrwt>0</asrwt>
<pdfrwt beam="1">  1       21 0.44508413E-01 0.46151400E+03</pdfrwt>
<pdfrwt beam="2">  1       21 0.25873182E-01 0.46151400E+03</pdfrwt>
<totfact> 0.63458200E+04</totfact>
</mgrwt>
</event>
<event>
 6    0  0.1539497E-004  0.5119340E+03  0.7546771E-02  0.1010710E+00
         21   -1    0    0  502  501  0.00000000000E+00  0.00000000000E+00  0.17110251917E+03  0.17110251917E+03  0.00000000000E+00 0. -1.
         21   -1    0    0  501  502 -0.00000000000E+00 -0.00000000000E+00 -0.38292308347E+03  0.38292308347E+03  0.00000000000E+00 0. -1.
      99925    2    1    2    0    0 -0.10576126502E+03  0.75593212504E+02 -0.22992812027E+03  0.37271048844E+03  0.26295700932E+03 0.  0.
         25    1    3    3    0    0 -0.33843926677E+02  0.59034206700E+02 -0.15042623762E+03  0.20713765953E+03  0.12509000000E+03 0.  0.
         25    1    1    2    0    0  0.10576126502E+03 -0.75593212504E+02  0.18107555964E+02  0.18131511420E+03  0.12509000000E+03 0.  0.
         25    1    3    3    0    0 -0.71917338340E+02  0.16559005804E+02 -0.79501882652E+02  0.16557282891E+03  0.12509000000E+03 0.  0.
<mgrwt>
<rscale>  2 0.51193400E+03</rscale>
<asrwt>0</asrwt>
<pdfrwt beam="1">  1       21 0.25162135E-01 0.51193400E+03</pdfrwt>
<pdfrwt beam="2">  1       21 0.56312217E-01 0.51193400E+03</pdfrwt>
<totfact> 0.40176081E+04</totfact>
</mgrwt>
</event>
<event>
 6    0  0.1539497E-004  0.4184642E+03  0.7546771E-02  0.1037567E+00
         21   -1    0    0  502  501  0.00000000000E+00  0.00000000000E+00  0.11010185195E+04  0.11010185195E+04  0.00000000000E+00 0. -1.
         21   -1    0    0  501  502 -0.00000000000E+00 -0.00000000000E+00 -0.39761431771E+02  0.39761431771E+02  0.00000000000E+00 0. -1.
      99925    2    1    2    0    0 -0.40353636948E+02  0.28035136964E+02  0.54256473587E+03  0.60495941332E+03  0.26303044354E+03 0.  0.
         25    1    3    3    0    0 -0.73308706274E+01  0.44356432970E+02  0.32753078096E+03  0.35347582009E+03  0.12509000000E+03 0.  0.
         25    1    3    3    0    0 -0.33022766321E+02 -0.16321296006E+02  0.21503395491E+03  0.25148359323E+03  0.12509000000E+03 0.  0.
         25    1    1    2    0    0  0.40353636948E+02 -0.28035136964E+02  0.51869235186E+03  0.53582053796E+03  0.12509000000E+03 0.  0.
<mgrwt>
<rscale>  2 0.41846421E+03</rscale>
<asrwt>0</asrwt>
<pdfrwt beam="1">  1       21 0.16191447E+00 0.41846421E+03</pdfrwt>
<pdfrwt beam="2">  1       21 0.58472701E-02 0.41846421E+03</pdfrwt>
<totfact> 0.45810775E+04</totfact>
</mgrwt>
</event>
<event>
 6    0  0.1539497E-004  0.4080961E+03  0.7546771E-02  0.1041012E+00
         21   -1    0    0  502  501  0.00000000000E+00  0.00000000000E+00  0.39103416563E+03  0.39103416563E+03  0.00000000000E+00 0. -1.
         21   -1    0    0  501  502 -0.00000000000E+00 -0.00000000000E+00 -0.10647564583E+03  0.10647564583E+03  0.00000000000E+00 0. -1.
      99925    2    1    2    0    0  0.44918242367E+02  0.15948802287E+02  0.14481180070E+03  0.30399323236E+03  0.26300078879E+03 0.  0.
         25    1    1    2    0    0 -0.44918242367E+02 -0.15948802287E+02  0.13974671910E+03  0.19351657911E+03  0.12509000000E+03 0.  0.
         25    1    3    3    0    0  0.27796285005E+02  0.47356343141E+02  0.64252217993E+02  0.15096725576E+03  0.12509000000E+03 0.  0.
         25    1    3    3    0    0  0.17121957363E+02 -0.31407540854E+02  0.80559582706E+02  0.15302597659E+03  0.12509000000E+03 0.  0.
<mgrwt>
<rscale>  2 0.40809614E+03</rscale>
<asrwt>0</asrwt>
<pdfrwt beam="1">  1       21 0.57505024E-01 0.40809614E+03</pdfrwt>
<pdfrwt beam="2">  1       21 0.15658183E-01 0.40809614E+03</pdfrwt>
<totfact> 0.96706009E+04</totfact>
</mgrwt>
</event>
<event>
 6    0  0.1539497E-004  0.3977697E+03  0.7546771E-02  0.1044555E+00
         21   -1    0    0  502  501  0.00000000000E+00  0.00000000000E+00  0.26882334354E+03  0.26882334354E+03  0.00000000000E+00 0. -1.
         21   -1    0    0  501  502 -0.00000000000E+00 -0.00000000000E+00 -0.14714193038E+03  0.14714193038E+03  0.00000000000E+00 0. -1.
      99925    2    1    2    0    0  0.10655347070E+02 -0.10474231698E+02  0.41523195480E+02  0.26664650781E+03  0.26296946290E+03 0.  0.
         25    1    3    3    0    0  0.30267920466E+02  0.12378827772E+01 -0.10768624406E+02  0.12915552925E+03  0.12509000000E+03 0.  0.
         25    1    1    2    0    0 -0.10655347070E+02  0.10474231698E+02  0.80158217683E+02  0.14931876611E+03  0.12509000000E+03 0.  0.
         25    1    3    3    0    0 -0.19612573397E+02 -0.11712114475E+02  0.52291819886E+02  0.13749097857E+03  0.12509000000E+03 0.  0.
<mgrwt>
<rscale>  2 0.39776971E+03</rscale>
<asrwt>0</asrwt>
<pdfrwt beam="1">  1       21 0.39532845E-01 0.39776971E+03</pdfrwt>
<pdfrwt beam="2">  1       21 0.21638519E-01 0.39776971E+03</pdfrwt>
<totfact> 0.11608288E+05</totfact>
</mgrwt>
</event>
<event>
 6    0  0.1539497E-004  0.3918233E+03  0.7546771E-02  0.1046648E+00
         21   -1    0    0  502  501  0.00000000000E+00  0.00000000000E+00  0.36821552556E+03  0.36821552556E+03  0.00000000000E+00 0. -1.
         21   -1    0    0  501  502 -0.00000000000E+00 -0.00000000000E+00 -0.10423617042E+03  0.10423617042E+03  0.00000000000E+00 0. -1.
      99925    2    1    2    0    0  0.17331885724E+02  0.61774141935E+01  0.19911454850E+03  0.33034783978E+03  0.26295348849E+03 0.  0.
         25    1    3    3    0    0  0.28342943049E+02  0.26930802668E+02  0.68122207732E+02  0.14770488766E+03  0.12509000000E+03 0.  0.
         25    1    3    3    0    0 -0.11011057325E+02 -0.20753388475E+02  0.13099234077E+03  0.18264295211E+03  0.12509000000E+03 0.  0.
         25    1    1    2    0    0 -0.17331885724E+02 -0.61774141935E+01  0.64864806636E+02  0.14210385621E+03  0.12509000000E+03 0.  0.
<mgrwt>
<rscale>  2 0.39182331E+03</rscale>
<asrwt>0</asrwt>
<pdfrwt beam="1">  1       21 0.54149342E-01 0.39182331E+03</pdfrwt>
<pdfrwt beam="2">  1       21 0.15328849E-01 0.39182331E+03</pdfrwt>
<totfact> 0.11492128E+05</totfact>
</mgrwt>
</event>
<event>
 6    0  0.1539497E-004  0.4782932E+03  0.7546771E-02  0.1019605E+00
         21   -1    0    0  502  501  0.00000000000E+00  0.00000000000E+00  0.63141697480E+03  0.63141697480E+03  0.00000000000E+00 0. -1.
         21   -1    0    0  501  502 -0.00000000000E+00 -0.00000000000E+00 -0.90575806988E+02  0.90575806988E+02  0.00000000000E+00 0. -1.
      99925    2    1    2    0    0 -0.67325764406E+02 -0.61492906953E+02  0.48107361886E+03  0.55605965018E+03  0.26354576762E+03 0.  0.
         25    1    3    3    0    0  0.77746364661E+01 -0.21971795883E+02  0.23602435594E+03  0.26813841478E+03  0.12509000000E+03 0.  0.
         25    1    1    2    0    0  0.67325764406E+02  0.61492906953E+02  0.59767548949E+02  0.16593313161E+03  0.12509000000E+03 0.  0.
         25    1    3    3    0    0 -0.75100400872E+02 -0.39521111070E+02  0.24504926293E+03  0.28792123540E+03  0.12509000000E+03 0.  0.
<mgrwt>
<rscale>  2 0.47829322E+03</rscale>
<asrwt>0</asrwt>
<pdfrwt beam="1">  1       21 0.92855435E-01 0.47829322E+03</pdfrwt>
<pdfrwt beam="2">  1       21 0.13319972E-01 0.47829322E+03</pdfrwt>
<totfact> 0.43239186E+04</totfact>
</mgrwt>
</event>
<event>
 6    0  0.1539497E-004  0.4116138E+03  0.7546771E-02  0.1039831E+00
         21   -1    0    0  502  501  0.00000000000E+00  0.00000000000E+00  0.50351423654E+02  0.50351423654E+02  0.00000000000E+00 0. -1.
         21   -1    0    0  501  502 -0.00000000000E+00 -0.00000000000E+00 -0.84121703271E+03  0.84121703271E+03  0.00000000000E+00 0. -1.
      99925    2    1    2    0    0  0.28184612412E+02  0.63763085992E+01 -0.39716431632E+03  0.47746310057E+03  0.26343213275E+03 0.  0.
         25    1    1    2    0    0 -0.28184612412E+02 -0.63763085992E+01 -0.39370129274E+03  0.41410535579E+03  0.12509000000E+03 0.  0.
         25    1    3    3    0    0  0.34687932040E+02 -0.32443624015E+02 -0.19500131253E+03  0.23649283574E+03  0.12509000000E+03 0.  0.
         25    1    3    3    0    0 -0.65033196280E+01  0.38819932614E+02 -0.20216300379E+03  0.24097026483E+03  0.12509000000E+03 0.  0.
<mgrwt>
<rscale>  2 0.41161378E+03</rscale>
<asrwt>0</asrwt>
<pdfrwt beam="1">  1       21 0.74046216E-02 0.41161378E+03</pdfrwt>
<pdfrwt beam="2">  1       21 0.12370838E+00 0.41161378E+03</pdfrwt>
<totfact> 0.62176132E+04</totfact>
</mgrwt>
</event>
<event>
 6    0  0.1539497E-004  0.4449205E+03  0.7546771E-02  0.1029248E+00
         21   -1    0    0  502  501  0.00000000000E+00  0.00000000000E+00  0.82930269647E+03  0.82930269647E+03  0.00000000000E+00 0. -1.
         21   -1    0    0  501  502 -0.00000000000E+00 -0.00000000000E+00 -0.59674908822E+02  0.59674908822E+02  0.00000000000E+00 0. -1.
      99925    2    1    2    0    0  0.53917503224E+02  0.62155941202E+02  0.36367909405E+03  0.45629722890E+03  0.26300992276E+03 0.  0.
         25    1    1    2    0    0 -0.53917503224E+02 -0.62155941202E+02  0.40594869359E+03  0.43268037639E+03  0.12509000000E+03 0.  0.
         25    1    3    3    0    0  0.32127556710E+02  0.69679847062E+02  0.16990146455E+03  0.22450273215E+03  0.12509000000E+03 0.  0.
         25    1    3    3    0    0  0.21789946514E+02 -0.75239058601E+01  0.19377762950E+03  0.23179449675E+03  0.12509000000E+03 0.  0.
<mgrwt>
<rscale>  2 0.44492050E+03</rscale>
<asrwt>0</asrwt>
<pdfrwt beam="1">  1       21 0.12195627E+00 0.44492050E+03</pdfrwt>
<pdfrwt beam="2">  1       21 0.87757224E-02 0.44492050E+03</pdfrwt>
<totfact> 0.47340445E+04</totfact>
</mgrwt>
</event>
<event>
 6    0  0.1539497E-004  0.4271585E+03  0.7546771E-02  0.1034761E+00
         21   -1    0    0  502  501  0.00000000000E+00  0.00000000000E+00  0.31283698130E+02  0.31283698130E+02  0.00000000000E+00 0.  1.
         21   -1    0    0  501  502 -0.00000000000E+00 -0.00000000000E+00 -0.14581430399E+04  0.14581430399E+04  0.00000000000E+00 0.  1.
      99925    2    1    2    0    0 -0.55997164374E+01  0.30522774555E+02 -0.64880321307E+03  0.70076848245E+03  0.26299783290E+03 0.  0.
         25    1    3    3    0    0  0.23648141831E+02 -0.52286056180E+00 -0.38865954361E+03  0.40897830864E+03  0.12509000000E+03 0.  0.
         25    1    1    2    0    0  0.55997164374E+01 -0.30522774555E+02 -0.77805612869E+03  0.78865825557E+03  0.12509000000E+03 0.  0.
         25    1    3    3    0    0 -0.29247858269E+02  0.31045635117E+02 -0.26014366946E+03  0.29179017381E+03  0.12509000000E+03 0.  0.
<mgrwt>
<rscale>  2 0.42715855E+03</rscale>
<asrwt>0</asrwt>
<pdfrwt beam="1">  1       21 0.46005433E-02 0.42715855E+03</pdfrwt>
<pdfrwt beam="2">  1       21 0.21443283E+00 0.42715855E+03</pdfrwt>
<totfact> 0.30027362E+04</totfact>
</mgrwt>
</event>
<event>
 6    0  0.1539497E-004  0.4628652E+03  0.7546771E-02  0.1023953E+00
         21   -1    0    0  502  501  0.00000000000E+00  0.00000000000E+00  0.16139719189E+03  0.16139719189E+03  0.00000000000E+00 0. -1.
         21   -1    0    0  501  502 -0.00000000000E+00 -0.00000000000E+00 -0.33185866019E+03  0.33185866019E+03  0.00000000000E+00 0. -1.
      99925    2    1    2    0    0  0.76848554166E+02  0.92013072451E+02 -0.11808522959E+03  0.31225064702E+03  0.26302897053E+03 0.  0.
         25    1    3    3    0    0  0.69249338016E+02  0.27181133445E+02 -0.80117513937E+02  0.16613431003E+03  0.12509000000E+03 0.  0.
         25    1    1    2    0    0 -0.76848554166E+02 -0.92013072451E+02 -0.52376238712E+02  0.18100520507E+03  0.12509000000E+03 0.  0.
         25    1    3    3    0    0  0.75992161504E+01  0.64831939006E+02 -0.37967715650E+02  0.14611633698E+03  0.12509000000E+03 0.  0.
<mgrwt>
<rscale>  2 0.46286523E+03</rscale>
<asrwt>0</asrwt>
<pdfrwt beam="1">  1       21 0.23734882E-01 0.46286523E+03</pdfrwt>
<pdfrwt beam="2">  1       21 0.48802743E-01 0.46286523E+03</pdfrwt>
<totfact> 0.61797460E+04</totfact>
</mgrwt>
</event>
<event>
 6    0  0.1539497E-004  0.4442353E+03  0.7546771E-02  0.1029455E+00
         21   -1    0    0  502  501  0.00000000000E+00  0.00000000000E+00  0.30211364049E+03  0.30211364049E+03  0.00000000000E+00 0.  1.
         21   -1    0    0  501  502 -0.00000000000E+00 -0.00000000000E+00 -0.16330358749E+03  0.16330358749E+03  0.00000000000E+00 0.  1.
      99925    2    1    2    0    0 -0.25058060061E+02  0.30051905096E+02  0.18772271977E+03  0.32552090765E+03  0.26304565844E+03 0.  0.
         25    1    3    3    0    0 -0.13388810045E+02 -0.10745122947E+02  0.53274082638E+02  0.13704143126E+03  0.12509000000E+03 0.  0.
         25    1    3    3    0    0 -0.11669250016E+02  0.40797028044E+02  0.13444863713E+03  0.18847947639E+03  0.12509000000E+03 0.  0.
         25    1    1    2    0    0  0.25058060061E+02 -0.30051905096E+02 -0.48912666762E+02  0.13989632034E+03  0.12509000000E+03 0.  0.
<mgrwt>
<rscale>  2 0.44423526E+03</rscale>
<asrwt>0</asrwt>
<pdfrwt beam="1">  1       21 0.44428477E-01 0.44423526E+03</pdfrwt>
<pdfrwt beam="2">  1       21 0.24015233E-01 0.44423526E+03</pdfrwt>
<totfact> 0.73890232E+04</totfact>
</mgrwt>
</event>
<event>
 6    0  0.1626977E-004  0.4125376E+03  0.7546771E-02  0.1039523E+00
         21   -1    0    0  502  501  0.00000000000E+00  0.00000000000E+00  0.23083553267E+03  0.23083553267E+03  0.00000000000E+00 0.  1.
         21   -1    0    0  501  502 -0.00000000000E+00 -0.00000000000E+00 -0.18431661342E+03  0.18431661342E+03  0.00000000000E+00 0.  1.
      99925    2    1    2    0    0  0.41176700260E+02 -0.49299013372E+01  0.79412728467E+02  0.27932381563E+03  0.26456679301E+03 0.  0.
         25    1    3    3    0    0 -0.12008852519E+02  0.86611023086E+01  0.65602203880E+02  0.14202247880E+03  0.12509000000E+03 0.  0.
         25    1    1    2    0    0 -0.41176700260E+02  0.49299013372E+01 -0.32893809208E+02  0.13582833046E+03  0.12509000000E+03 0.  0.
         25    1    3    3    0    0  0.53185552779E+02 -0.13591003646E+02  0.13810524587E+02  0.13730133682E+03  0.12509000000E+03 0.  0.
<mgrwt>
<rscale>  2 0.41253763E+03</rscale>
<asrwt>0</asrwt>
<pdfrwt beam="1">  1       21 0.33946402E-01 0.41253763E+03</pdfrwt>
<pdfrwt beam="2">  1       21 0.27105384E-01 0.41253763E+03</pdfrwt>
<totfact> 0.10198151E+05</totfact>
</mgrwt>
</event>
<event>
 6    0  0.1539497E-004  0.4223995E+03  0.7546771E-02  0.1036288E+00
         21   -1    0    0  502  501  0.00000000000E+00  0.00000000000E+00  0.52834180839E+02  0.52834180839E+02  0.00000000000E+00 0. -1.
         21   -1    0    0  501  502 -0.00000000000E+00 -0.00000000000E+00 -0.84425148677E+03  0.84425148677E+03  0.00000000000E+00 0. -1.
      99925    2    1    2    0    0 -0.29120245921E+02  0.39840721491E+02 -0.64483014675E+03  0.69816212665E+03  0.26303833393E+03 0.  0.
         25    1    3    3    0    0 -0.51696869914E+02  0.37533579515E+02 -0.33274559175E+03  0.36117651209E+03  0.12509000000E+03 0.  0.
         25    1    1    2    0    0  0.29120245921E+02 -0.39840721491E+02 -0.14658715918E+03  0.19892354096E+03  0.12509000000E+03 0.  0.
         25    1    3    3    0    0  0.22576623993E+02  0.23071419759E+01 -0.31208455499E+03  0.33698561456E+03  0.12509000000E+03 0.  0.
<mgrwt>
<rscale>  2 0.42239951E+03</rscale>
<asrwt>0</asrwt>
<pdfrwt beam="1">  1       21 0.77697316E-02 0.42239951E+03</pdfrwt>
<pdfrwt beam="2">  1       21 0.12415464E+00 0.42239951E+03</pdfrwt>
<totfact> 0.56440330E+04</totfact>
</mgrwt>
</event>
<event>
 6    0  0.1539497E-004  0.4213694E+03  0.7546771E-02  0.1036622E+00
         21   -1    0    0  502  501  0.00000000000E+00  0.00000000000E+00  0.20554158878E+04  0.20554158878E+04  0.00000000000E+00 0.  1.
         21   -1    0    0  501  502 -0.00000000000E+00 -0.00000000000E+00 -0.21595654866E+02  0.21595654866E+02  0.00000000000E+00 0.  1.
      99925    2    1    2    0    0 -0.24441021907E+01 -0.79142822829E+01  0.93987095985E+03  0.97590249735E+03  0.26260170156E+03 0.  0.
         25    1    3    3    0    0 -0.33061200218E+02  0.19654998031E+02  0.48559871495E+03  0.50292442968E+03  0.12509000000E+03 0.  0.
         25    1    1    2    0    0  0.24441021907E+01  0.79142822829E+01  0.10939492731E+04  0.11011090453E+04  0.12509000000E+03 0.  0.
         25    1    3    3    0    0  0.30617098028E+02 -0.27569280313E+02  0.45427224490E+03  0.47297806767E+03  0.12509000000E+03 0.  0.
<mgrwt>
<rscale>  2 0.42136944E+03</rscale>
<asrwt>0</asrwt>
<pdfrwt beam="1">  1       21 0.30226691E+00 0.42136944E+03</pdfrwt>
<pdfrwt beam="2">  1       21 0.31758330E-02 0.42136944E+03</pdfrwt>
<totfact> 0.16368186E+04</totfact>
</mgrwt>
</event>
<event>
 6    0  0.1539497E-004  0.4022752E+03  0.7546771E-02  0.1042995E+00
         21   -1    0    0  502  501  0.00000000000E+00  0.00000000000E+00  0.16356438857E+03  0.16356438857E+03  0.00000000000E+00 0.  1.
         21   -1    0    0  501  502 -0.00000000000E+00 -0.00000000000E+00 -0.24734188997E+03  0.24734188997E+03  0.00000000000E+00 0.  1.
      99925    2    1    2    0    0 -0.21108578785E+02  0.23523398087E+02 -0.94956556974E+02  0.28140183174E+03  0.26300441221E+03 0.  0.
         25    1    1    2    0    0  0.21108578785E+02 -0.23523398087E+02  0.11179055580E+02  0.12950444679E+03  0.12509000000E+03 0.  0.
         25    1    3    3    0    0  0.27011173570E+02 -0.41625176805E+01 -0.45964822888E+02  0.13604118161E+03  0.12509000000E+03 0.  0.
         25    1    3    3    0    0 -0.48119752355E+02  0.27685915767E+02 -0.48991734086E+02  0.14536065013E+03  0.12509000000E+03 0.  0.
<mgrwt>
<rscale>  2 0.40227515E+03</rscale>
<asrwt>0</asrwt>
<pdfrwt beam="1">  1       21 0.24053587E-01 0.40227515E+03</pdfrwt>
<pdfrwt beam="2">  1       21 0.36373807E-01 0.40227515E+03</pdfrwt>
<totfact> 0.11214058E+05</totfact>
</mgrwt>
</event>
<event>
 6    0  0.1539497E-004  0.4057085E+03  0.7546771E-02  0.1041821E+00
         21   -1    0    0  502  501  0.00000000000E+00  0.00000000000E+00  0.19588400869E+03  0.19588400869E+03  0.00000000000E+00 0. -1.
         21   -1    0    0  501  502 -0.00000000000E+00 -0.00000000000E+00 -0.21007249845E+03  0.21007249845E+03  0.00000000000E+00 0. -1.
      99925    2    1    2    0    0  0.45959237382E+02 -0.11113317893E+01 -0.40901984881E+02  0.27003518622E+03  0.26293068073E+03 0.  0.
         25    1    1    2    0    0 -0.45959237382E+02  0.11113317893E+01  0.26713495128E+02  0.13592132092E+03  0.12509000000E+03 0.  0.
         25    1    3    3    0    0  0.20116540490E+02 -0.25533803376E+02 -0.52442006715E+02  0.13947875281E+03  0.12509000000E+03 0.  0.
         25    1    3    3    0    0  0.25842696892E+02  0.24422471586E+02  0.11540021834E+02  0.13055643341E+03  0.12509000000E+03 0.  0.
<mgrwt>
<rscale>  2 0.40570848E+03</rscale>
<asrwt>0</asrwt>
<pdfrwt beam="1">  1       21 0.28806472E-01 0.40570848E+03</pdfrwt>
<pdfrwt beam="2">  1       21 0.30893014E-01 0.40570848E+03</pdfrwt>
<totfact> 0.10939928E+05</totfact>
</mgrwt>
</event>
<event>
 6    0  0.1539497E-004  0.4080476E+03  0.7546771E-02  0.1041028E+00
         21   -1    0    0  502  501  0.00000000000E+00  0.00000000000E+00  0.93670402708E+02  0.93670402708E+02  0.00000000000E+00 0. -1.
         21   -1    0    0  501  502 -0.00000000000E+00 -0.00000000000E+00 -0.44438478446E+03  0.44438478446E+03  0.00000000000E+00 0. -1.
      99925    2    1    2    0    0  0.36010163067E+02  0.17739116017E+02 -0.28930046736E+03  0.39303592961E+03  0.26300394193E+03 0.  0.
         25    1    1    2    0    0 -0.36010163067E+02 -0.17739116017E+02 -0.61413914396E+02  0.14501925756E+03  0.12509000000E+03 0.  0.
         25    1    3    3    0    0  0.61404846287E+00  0.44241003206E+02 -0.15879974587E+03  0.20693600655E+03  0.12509000000E+03 0.  0.
         25    1    3    3    0    0  0.35396114604E+02 -0.26501887189E+02 -0.13050072149E+03  0.18609992306E+03  0.12509000000E+03 0.  0.
<mgrwt>
<rscale>  2 0.40804755E+03</rscale>
<asrwt>0</asrwt>
<pdfrwt beam="1">  1       21 0.13775059E-01 0.40804755E+03</pdfrwt>
<pdfrwt beam="2">  1       21 0.65350703E-01 0.40804755E+03</pdfrwt>
<totfact> 0.92551872E+04</totfact>
</mgrwt>
</event>
<event>
 6    0  0.1539497E-004  0.5086626E+03  0.7546771E-02  0.1011542E+00
         21   -1    0    0  502  501  0.00000000000E+00  0.00000000000E+00  0.65976444494E+02  0.65976444494E+02  0.00000000000E+00 0. -1.
         21   -1    0    0  501  502 -0.00000000000E+00 -0.00000000000E+00 -0.98041691077E+03  0.98041691077E+03  0.00000000000E+00 0. -1.
      99925    2    1    2    0    0  0.23082531255E+02  0.10493844131E+03 -0.31335031082E+03  0.42309425949E+03  0.26320230889E+03 0.  0.
         25    1    3    3    0    0  0.39698428792E+02  0.31958623659E+02 -0.18365165536E+03  0.22797534405E+03  0.12509000000E+03 0.  0.
         25    1    3    3    0    0 -0.16615897536E+02  0.72979817651E+02 -0.12969865546E+03  0.19511891544E+03  0.12509000000E+03 0.  0.
         25    1    1    2    0    0 -0.23082531255E+02 -0.10493844131E+03 -0.60109015545E+03  0.62329909577E+03  0.12509000000E+03 0.  0.
<mgrwt>
<rscale>  2 0.50866265E+03</rscale>
<asrwt>0</asrwt>
<pdfrwt beam="1">  1       21 0.97024184E-02 0.50866265E+03</pdfrwt>
<pdfrwt beam="2">  1       21 0.14417896E+00 0.50866265E+03</pdfrwt>
<totfact> 0.25118144E+04</totfact>
</mgrwt>
</event>
<event>
 6    0  0.1539497E-004  0.4206993E+03  0.7546771E-02  0.1036839E+00
         21   -1    0    0  502  501  0.00000000000E+00  0.00000000000E+00  0.10374287156E+04  0.10374287156E+04  0.00000000000E+00 0. -1.
         21   -1    0    0  501  502 -0.00000000000E+00 -0.00000000000E+00 -0.42650617295E+02  0.42650617295E+02  0.00000000000E+00 0. -1.
      99925    2    1    2    0    0  0.16872614786E+02 -0.59521976737E+02  0.76481647235E+03  0.81108600889E+03  0.26284734466E+03 0.  0.
         25    1    1    2    0    0 -0.16872614786E+02  0.59521976737E+02  0.22996162592E+03  0.26899332397E+03  0.12509000000E+03 0.  0.
         25    1    3    3    0    0  0.42482136408E+02 -0.49323619362E+02  0.43413843678E+03  0.45646603568E+03  0.12509000000E+03 0.  0.
         25    1    3    3    0    0 -0.25609521622E+02 -0.10198357375E+02  0.33067803558E+03  0.35461997322E+03  0.12509000000E+03 0.  0.
<mgrwt>
<rscale>  2 0.42069930E+03</rscale>
<asrwt>0</asrwt>
<pdfrwt beam="1">  1       21 0.15256303E+00 0.42069930E+03</pdfrwt>
<pdfrwt beam="2">  1       21 0.62721503E-02 0.42069930E+03</pdfrwt>
<totfact> 0.47748011E+04</totfact>
</mgrwt>
</event>
<event>
 6    0  0.1539497E-004  0.4038483E+03  0.7546771E-02  0.1042455E+00
         21   -1    0    0  502  501  0.00000000000E+00  0.00000000000E+00  0.18974058804E+03  0.18974058804E+03  0.00000000000E+00 0.  1.
         21   -1    0    0  501  502 -0.00000000000E+00 -0.00000000000E+00 -0.21489003901E+03  0.21489003901E+03  0.00000000000E+00 0.  1.
      99925    2    1    2    0    0 -0.41367483355E+02  0.68019901001E+01  0.14909665151E+02  0.26675468052E+03  0.26301753880E+03 0.  0.
         25    1    3    3    0    0 -0.51492407827E+02  0.23650737819E+02  0.25554112695E+02  0.13968302058E+03  0.12509000000E+03 0.  0.
         25    1    3    3    0    0  0.10124924471E+02 -0.16848747719E+02 -0.10644447544E+02  0.12707165994E+03  0.12509000000E+03 0.  0.
         25    1    1    2    0    0  0.41367483355E+02 -0.68019901001E+01 -0.40059116119E+02  0.13787594653E+03  0.12509000000E+03 0.  0.
<mgrwt>
<rscale>  2 0.40384830E+03</rscale>
<asrwt>0</asrwt>
<pdfrwt beam="1">  1       21 0.27903028E-01 0.40384830E+03</pdfrwt>
<pdfrwt beam="2">  1       21 0.31601476E-01 0.40384830E+03</pdfrwt>
<totfact> 0.11138347E+05</totfact>
</mgrwt>
</event>
<event>
 6    0  0.1539497E-004  0.4037905E+03  0.7546771E-02  0.1042475E+00
         21   -1    0    0  502  501  0.00000000000E+00  0.00000000000E+00  0.13429328119E+04  0.13429328119E+04  0.00000000000E+00 0.  1.
         21   -1    0    0  501  502 -0.00000000000E+00 -0.00000000000E+00 -0.30352743835E+02  0.30352743835E+02  0.00000000000E+00 0.  1.
      99925    2    1    2    0    0 -0.34303492400E+02  0.16335954350E+02  0.74869315535E+03  0.79444226829E+03  0.26297049982E+03 0.  0.
         25    1    3    3    0    0 -0.49514351740E+02 -0.13709480990E+02  0.34917890615E+03  0.37445031379E+03  0.12509000000E+03 0.  0.
         25    1    3    3    0    0  0.15210859340E+02  0.30045435340E+02  0.39951424920E+03  0.41999195449E+03  0.12509000000E+03 0.  0.
         25    1    1    2    0    0  0.34303492400E+02 -0.16335954350E+02  0.56388691273E+03  0.57884328746E+03  0.12509000000E+03 0.  0.
<mgrwt>
<rscale>  2 0.40379052E+03</rscale>
<asrwt>0</asrwt>
<pdfrwt beam="1">  1       21 0.19749008E+00 0.40379052E+03</pdfrwt>
<pdfrwt beam="2">  1       21 0.44636397E-02 0.40379052E+03</pdfrwt>
<totfact> 0.41158781E+04</totfact>
</mgrwt>
</event>
<event>
 6    0  0.1539497E-004  0.4358401E+03  0.7546771E-02  0.1032031E+00
         21   -1    0    0  502  501  0.00000000000E+00  0.00000000000E+00  0.67084985834E+02  0.67084985834E+02  0.00000000000E+00 0.  1.
         21   -1    0    0  501  502 -0.00000000000E+00 -0.00000000000E+00 -0.70789545819E+03  0.70789545819E+03  0.00000000000E+00 0.  1.
      99925    2    1    2    0    0  0.65885626463E+02  0.29751230558E+01 -0.29137713193E+03  0.39801766783E+03  0.26299745962E+03 0.  0.
         25    1    3    3    0    0  0.71762708368E+02 -0.95971954406E+01 -0.17046594818E+03  0.22349080531E+03  0.12509000000E+03 0.  0.
         25    1    3    3    0    0 -0.58770819041E+01  0.12572318496E+02 -0.12091118375E+03  0.17452686252E+03  0.12509000000E+03 0.  0.
         25    1    1    2    0    0 -0.65885626463E+02 -0.29751230558E+01 -0.34943334043E+03  0.37696277620E+03  0.12509000000E+03 0.  0.
<mgrwt>
<rscale>  2 0.43584014E+03</rscale>
<asrwt>0</asrwt>
<pdfrwt beam="1">  1       21 0.98654395E-02 0.43584014E+03</pdfrwt>
<pdfrwt beam="2">  1       21 0.10410227E+00 0.43584014E+03</pdfrwt>
<totfact> 0.57117012E+04</totfact>
</mgrwt>
</event>
<event>
 6    0  0.1539497E-004  0.4268594E+03  0.7546771E-02  0.1034857E+00
         21   -1    0    0  502  501  0.00000000000E+00  0.00000000000E+00  0.25739819730E+03  0.25739819730E+03  0.00000000000E+00 0. -1.
         21   -1    0    0  501  502 -0.00000000000E+00 -0.00000000000E+00 -0.17697183865E+03  0.17697183865E+03  0.00000000000E+00 0. -1.
      99925    2    1    2    0    0 -0.30249738255E+01 -0.71702940014E+01  0.13728565341E+03  0.29674354474E+03  0.26296162672E+03 0.  0.
         25    1    3    3    0    0  0.21759938064E+02 -0.11375529241E+02  0.32283380983E+02  0.13150141580E+03  0.12509000000E+03 0.  0.
         25    1    3    3    0    0 -0.24784911889E+02  0.42052352393E+01  0.10500227243E+03  0.16524212894E+03  0.12509000000E+03 0.  0.
         25    1    1    2    0    0  0.30249738255E+01  0.71702940014E+01 -0.56859294762E+02  0.13762649121E+03  0.12509000000E+03 0.  0.
<mgrwt>
<rscale>  2 0.42685938E+03</rscale>
<asrwt>0</asrwt>
<pdfrwt beam="1">  1       21 0.37852676E-01 0.42685938E+03</pdfrwt>
<pdfrwt beam="2">  1       21 0.26025270E-01 0.42685938E+03</pdfrwt>
<totfact> 0.88296059E+04</totfact>
</mgrwt>
</event>
<event>
 6    0  0.1539497E-004  0.3949471E+03  0.7546771E-02  0.1045543E+00
         21   -1    0    0  502  501  0.00000000000E+00  0.00000000000E+00  0.18174561904E+03  0.18174561904E+03  0.00000000000E+00 0.  1.
         21   -1    0    0  501  502 -0.00000000000E+00 -0.00000000000E+00 -0.21456256326E+03  0.21456256326E+03  0.00000000000E+00 0.  1.
      99925    2    1    2    0    0 -0.28074662941E+02  0.10459117450E+02 -0.51712659850E+01  0.26474309779E+03  0.26299160823E+03 0.  0.
         25    1    3    3    0    0 -0.50328871671E+02  0.16468665013E+02 -0.17460100797E+02  0.13695464750E+03  0.12509000000E+03 0.  0.
         25    1    3    3    0    0  0.22254208730E+02 -0.60095475632E+01  0.12288834812E+02  0.12778845030E+03  0.12509000000E+03 0.  0.
         25    1    1    2    0    0  0.28074662941E+02 -0.10459117450E+02 -0.27645678238E+02  0.13156508451E+03  0.12509000000E+03 0.  0.
<mgrwt>
<rscale>  2 0.39494711E+03</rscale>
<asrwt>0</asrwt>
<pdfrwt beam="1">  1       21 0.26727297E-01 0.39494711E+03</pdfrwt>
<pdfrwt beam="2">  1       21 0.31553318E-01 0.39494711E+03</pdfrwt>
<totfact> 0.12177559E+05</totfact>
</mgrwt>
</event>
<event>
 6    0  0.1539497E-004  0.5272318E+03  0.7546771E-02  0.1006906E+00
         21   -1    0    0  502  501  0.00000000000E+00  0.00000000000E+00  0.17686715308E+03  0.17686715308E+03  0.00000000000E+00 0. -1.
         21   -1    0    0  501  502 -0.00000000000E+00 -0.00000000000E+00 -0.39291260811E+03  0.39291260811E+03  0.00000000000E+00 0. -1.
      99925    2    1    2    0    0 -0.16077811930E+03  0.61069608920E+02 -0.13975774313E+03  0.34384520458E+03  0.26290339893E+03 0.  0.
         25    1    3    3    0    0 -0.49267814557E+02  0.37978797974E+02 -0.94735895152E+02  0.16879604432E+03  0.12509000000E+03 0.  0.
         25    1    1    2    0    0  0.16077811930E+03 -0.61069608920E+02 -0.76287711907E+02  0.22593455660E+03  0.12509000000E+03 0.  0.
         25    1    3    3    0    0 -0.11151030474E+03  0.23090810946E+02 -0.45021847977E+02  0.17504916027E+03  0.12509000000E+03 0.  0.
<mgrwt>
<rscale>  2 0.52723177E+03</rscale>
<asrwt>0</asrwt>
<pdfrwt beam="1">  1       21 0.26009876E-01 0.52723177E+03</pdfrwt>
<pdfrwt beam="2">  1       21 0.57781265E-01 0.52723177E+03</pdfrwt>
<totfact> 0.35491838E+04</totfact>
</mgrwt>
</event>
<event>
 6    0  0.1539497E-004  0.3985519E+03  0.7546771E-02  0.1044282E+00
         21   -1    0    0  502  501  0.00000000000E+00  0.00000000000E+00  0.19336122524E+04  0.19336122524E+04  0.00000000000E+00 0.  1.
         21   -1    0    0  501  502 -0.00000000000E+00 -0.00000000000E+00 -0.20537161854E+02  0.20537161854E+02  0.00000000000E+00 0.  1.
      99925    2    1    2    0    0 -0.23888316060E+02  0.32237516062E+02  0.12194461028E+04  0.12481900742E+04  0.26328644967E+03 0.  0.
         25    1    3    3    0    0 -0.12752860350E+02  0.52616721797E+02  0.72041454930E+03  0.73319559860E+03  0.12509000000E+03 0.  0.
         25    1    3    3    0    0 -0.11135455710E+02 -0.20379205734E+02  0.49903155350E+03  0.51499447559E+03  0.12509000000E+03 0.  0.
         25    1    1    2    0    0  0.23888316060E+02 -0.32237516062E+02  0.69362898777E+03  0.70595934009E+03  0.12509000000E+03 0.  0.
<mgrwt>
<rscale>  2 0.39855192E+03</rscale>
<asrwt>0</asrwt>
<pdfrwt beam="1">  1       21 0.28435462E+00 0.39855192E+03</pdfrwt>
<pdfrwt beam="2">  1       21 0.30201722E-02 0.39855192E+03</pdfrwt>
<totfact> 0.23038017E+04</totfact>
</mgrwt>
</event>
<event>
 6    0  0.1539497E-004  0.4083612E+03  0.7546771E-02  0.1040922E+00
         21   -1    0    0  502  501  0.00000000000E+00  0.00000000000E+00  0.24830235851E+03  0.24830235851E+03  0.00000000000E+00 0. -1.
         21   -1    0    0  501  502 -0.00000000000E+00 -0.00000000000E+00 -0.16789897762E+03  0.16789897762E+03  0.00000000000E+00 0. -1.
      99925    2    1    2    0    0 -0.32618365789E+01 -0.34834420566E+02  0.10261834735E+03  0.28442467178E+03  0.26295017070E+03 0.  0.
         25    1    1    2    0    0  0.32618365789E+01  0.34834420566E+02 -0.22214966461E+02  0.13177666436E+03  0.12509000000E+03 0.  0.
         25    1    3    3    0    0 -0.15019384107E+02 -0.29791937415E+02  0.13208416226E+02  0.13013497529E+03  0.12509000000E+03 0.  0.
         25    1    3    3    0    0  0.11757547528E+02 -0.50424831507E+01  0.89409931127E+02  0.15428969649E+03  0.12509000000E+03 0.  0.
<mgrwt>
<rscale>  2 0.40836117E+03</rscale>
<asrwt>0</asrwt>
<pdfrwt beam="1">  1       21 0.36515053E-01 0.40836117E+03</pdfrwt>
<pdfrwt beam="2">  1       21 0.24691026E-01 0.40836117E+03</pdfrwt>
<totfact> 0.10563853E+05</totfact>
</mgrwt>
</event>
<event>
 6    0  0.1539497E-004  0.3934878E+03  0.7546771E-02  0.1046058E+00
         21   -1    0    0  502  501  0.00000000000E+00  0.00000000000E+00  0.41573782931E+02  0.41573782931E+02  0.00000000000E+00 0. -1.
         21   -1    0    0  501  502 -0.00000000000E+00 -0.00000000000E+00 -0.93107166427E+03  0.93107166427E+03  0.00000000000E+00 0. -1.
      99925    2    1    2    0    0 -0.12163373573E+02 -0.35648462511E+01 -0.66714586508E+03  0.71720742533E+03  0.26294910128E+03 0.  0.
         25    1    3    3    0    0 -0.20650965010E+02 -0.33731000887E+02 -0.39129021368E+03  0.41269817324E+03  0.12509000000E+03 0.  0.
         25    1    1    2    0    0  0.12163373573E+02  0.35648462511E+01 -0.22235201626E+03  0.25543802188E+03  0.12509000000E+03 0.  0.
         25    1    3    3    0    0  0.84875914379E+01  0.30166154636E+02 -0.27585565140E+03  0.30450925208E+03  0.12509000000E+03 0.  0.
<mgrwt>
<rscale>  2 0.39348785E+03</rscale>
<asrwt>0</asrwt>
<pdfrwt beam="1">  1       21 0.61137919E-02 0.39348785E+03</pdfrwt>
<pdfrwt beam="2">  1       21 0.13692230E+00 0.39348785E+03</pdfrwt>
<totfact> 0.67185659E+04</totfact>
</mgrwt>
</event>
<event>
 6    0  0.1539497E-004  0.3953595E+03  0.7546771E-02  0.1045398E+00
         21   -1    0    0  502  501  0.00000000000E+00  0.00000000000E+00  0.32986085171E+03  0.32986085171E+03  0.00000000000E+00 0.  1.
         21   -1    0    0  501  502 -0.00000000000E+00 -0.00000000000E+00 -0.11846596115E+03  0.11846596115E+03  0.00000000000E+00 0.  1.
      99925    2    1    2    0    0  0.32450291183E+02 -0.14331680981E+02  0.14176409124E+03  0.30083316963E+03  0.26295459667E+03 0.  0.
         25    1    3    3    0    0  0.35270629384E+02 -0.10953558340E+02  0.31861258947E+02  0.13426334444E+03  0.12509000000E+03 0.  0.
         25    1    1    2    0    0 -0.32450291183E+02  0.14331680981E+02  0.69630799323E+02  0.14749364323E+03  0.12509000000E+03 0.  0.
         25    1    3    3    0    0 -0.28203382012E+01 -0.33781226412E+01  0.10990283229E+03  0.16656982520E+03  0.12509000000E+03 0.  0.
<mgrwt>
<rscale>  2 0.39535950E+03</rscale>
<asrwt>0</asrwt>
<pdfrwt beam="1">  1       21 0.48508949E-01 0.39535950E+03</pdfrwt>
<pdfrwt beam="2">  1       21 0.17421465E-01 0.39535950E+03</pdfrwt>
<totfact> 0.11435228E+05</totfact>
</mgrwt>
</event>
<event>
 6    0  0.1539497E-004  0.4877037E+03  0.7546771E-02  0.1017039E+00
         21   -1    0    0  502  501  0.00000000000E+00  0.00000000000E+00  0.44985974060E+03  0.44985974060E+03  0.00000000000E+00 0. -1.
         21   -1    0    0  501  502 -0.00000000000E+00 -0.00000000000E+00 -0.13218283245E+03  0.13218283245E+03  0.00000000000E+00 0. -1.
      99925    2    1    2    0    0 -0.14070501879E+03 -0.17161682846E+01  0.21432997892E+03  0.36726607659E+03  0.26295661925E+03 0.  0.
         25    1    1    2    0    0  0.14070501879E+03  0.17161682846E+01  0.10334692924E+03  0.21477649646E+03  0.12509000000E+03 0.  0.
         25    1    3    3    0    0 -0.67631787282E+02  0.63006003738E+01  0.57230756350E+02  0.15341650429E+03  0.12509000000E+03 0.  0.
         25    1    3    3    0    0 -0.73073231510E+02 -0.80167686584E+01  0.15709922257E+03  0.21384957230E+03  0.12509000000E+03 0.  0.
<mgrwt>
<rscale>  2 0.48770374E+03</rscale>
<asrwt>0</asrwt>
<pdfrwt beam="1">  1       21 0.66155844E-01 0.48770374E+03</pdfrwt>
<pdfrwt beam="2">  1       21 0.19438652E-01 0.48770374E+03</pdfrwt>
<totfact> 0.46540880E+04</totfact>
</mgrwt>
</event>
<event>
 6    0  0.1539497E-004  0.4022459E+03  0.7546771E-02  0.1043005E+00
         21   -1    0    0  502  501  0.00000000000E+00  0.00000000000E+00  0.21795114362E+03  0.21795114362E+03  0.00000000000E+00 0.  1.
         21   -1    0    0  501  502 -0.00000000000E+00 -0.00000000000E+00 -0.18559404958E+03  0.18559404958E+03  0.00000000000E+00 0.  1.
      99925    2    1    2    0    0  0.33432770953E+02  0.61551932843E+01  0.57889620475E+02  0.27142761456E+03  0.26299449654E+03 0.  0.
         25    1    3    3    0    0  0.11429512243E+02  0.13140624375E+02  0.68689815300E+02  0.14376755053E+03  0.12509000000E+03 0.  0.
         25    1    1    2    0    0 -0.33432770953E+02 -0.61551932843E+01 -0.25532526431E+02  0.13211757863E+03  0.12509000000E+03 0.  0.
         25    1    3    3    0    0  0.22003258710E+02 -0.69854310903E+01 -0.10800194825E+02  0.12766006404E+03  0.12509000000E+03 0.  0.
<mgrwt>
<rscale>  2 0.40224587E+03</rscale>
<asrwt>0</asrwt>
<pdfrwt beam="1">  1       21 0.32051639E-01 0.40224587E+03</pdfrwt>
<pdfrwt beam="2">  1       21 0.27293242E-01 0.40224587E+03</pdfrwt>
<totfact> 0.11312067E+05</totfact>
</mgrwt>
</event>
<event>
 6    0  0.1539497E-004  0.4129105E+03  0.7546771E-02  0.1039399E+00
         21   -1    0    0  502  501  0.00000000000E+00  0.00000000000E+00  0.83527638875E+03  0.83527638875E+03  0.00000000000E+00 0. -1.
         21   -1    0    0  501  502 -0.00000000000E+00 -0.00000000000E+00 -0.51029531291E+02  0.51029531291E+02  0.00000000000E+00 0. -1.
      99925    2    1    2    0    0  0.49198238565E+02 -0.18946406474E+02  0.60200728250E+03  0.65906551040E+03  0.26301168379E+03 0.  0.
         25    1    3    3    0    0 -0.43051335625E+01 -0.37695370502E+02  0.28122779116E+03  0.31012264308E+03  0.12509000000E+03 0.  0.
         25    1    1    2    0    0 -0.49198238565E+02  0.18946406474E+02  0.18223957496E+03  0.22724040965E+03  0.12509000000E+03 0.  0.
         25    1    3    3    0    0  0.53503372127E+02  0.18748964028E+02  0.32077949135E+03  0.34894286732E+03  0.12509000000E+03 0.  0.
<mgrwt>
<rscale>  2 0.41291046E+03</rscale>
<asrwt>0</asrwt>
<pdfrwt beam="1">  1       21 0.12283475E+00 0.41291046E+03</pdfrwt>
<pdfrwt beam="2">  1       21 0.75043434E-02 0.41291046E+03</pdfrwt>
<totfact> 0.61818607E+04</totfact>
</mgrwt>
</event>
<event>
 6    0  0.1539497E-004  0.4337281E+03  0.7546771E-02  0.1032689E+00
         21   -1    0    0  502  501  0.00000000000E+00  0.00000000000E+00  0.96091563057E+03  0.96091563057E+03  0.00000000000E+00 0.  1.
         21   -1    0    0  501  502 -0.00000000000E+00 -0.00000000000E+00 -0.48942924070E+02  0.48942924070E+02  0.00000000000E+00 0.  1.
      99925    2    1    2    0    0 -0.71512444566E+02  0.46115568814E+02  0.66598841979E+03  0.72107411458E+03  0.26299549046E+03 0.  0.
         25    1    1    2    0    0  0.71512444566E+02 -0.46115568814E+02  0.24598428671E+03  0.28878444007E+03  0.12509000000E+03 0.  0.
         25    1    3    3    0    0 -0.52700633476E+01  0.22589056835E+01  0.25273765844E+03  0.28205798750E+03  0.12509000000E+03 0.  0.
         25    1    3    3    0    0 -0.66242381218E+02  0.43856663130E+02  0.41325076135E+03  0.43901612707E+03  0.12509000000E+03 0.  0.
<mgrwt>
<rscale>  2 0.43372812E+03</rscale>
<asrwt>0</asrwt>
<pdfrwt beam="1">  1       21 0.14131111E+00 0.43372812E+03</pdfrwt>
<pdfrwt beam="2">  1       21 0.71974894E-02 0.43372812E+03</pdfrwt>
<totfact> 0.45957827E+04</totfact>
</mgrwt>
</event>
<event>
 6    0  0.1539497E-004  0.4168703E+03  0.7546771E-02  0.1038090E+00
         21   -1    0    0  502  501  0.00000000000E+00  0.00000000000E+00  0.59172568076E+02  0.59172568076E+02  0.00000000000E+00 0. -1.
         21   -1    0    0  501  502 -0.00000000000E+00 -0.00000000000E+00 -0.73421192120E+03  0.73421192120E+03  0.00000000000E+00 0. -1.
      99925    2    1    2    0    0  0.71009324130E+02 -0.13065698582E+01 -0.42079162790E+03  0.50126560060E+03  0.26297828237E+03 0.  0.
         25    1    3    3    0    0  0.16759211216E+02  0.26689078798E+02 -0.24650387462E+03  0.27821726472E+03  0.12509000000E+03 0.  0.
         25    1    3    3    0    0  0.54250112914E+02 -0.27995648656E+02 -0.17428775328E+03  0.22304833588E+03  0.12509000000E+03 0.  0.
         25    1    1    2    0    0 -0.71009324130E+02  0.13065698582E+01 -0.25424772523E+03  0.29211888868E+03  0.12509000000E+03 0.  0.
<mgrwt>
<rscale>  2 0.41687027E+03</rscale>
<asrwt>0</asrwt>
<pdfrwt beam="1">  1       21 0.87018483E-02 0.41687027E+03</pdfrwt>
<pdfrwt beam="2">  1       21 0.10797234E+00 0.41687027E+03</pdfrwt>
<totfact> 0.65630897E+04</totfact>
</mgrwt>
</event>
<event>
 6    0  0.1539497E-004  0.4571516E+03  0.7546771E-02  0.1025611E+00
         21   -1    0    0  502  501  0.00000000000E+00  0.00000000000E+00  0.24286135573E+03  0.24286135573E+03  0.00000000000E+00 0.  1.
         21   -1    0    0  501  502 -0.00000000000E+00 -0.00000000000E+00 -0.21513051344E+03  0.21513051344E+03  0.00000000000E+00 0.  1.
      99925    2    1    2    0    0  0.72710674906E+02  0.56854181277E+02  0.86023979569E+02  0.29196525044E+03  0.26329516180E+03 0.  0.
         25    1    1    2    0    0 -0.72710674906E+02 -0.56854181277E+02 -0.58293137284E+02  0.16602661873E+03  0.12509000000E+03 0.  0.
         25    1    3    3    0    0  0.39767388884E+02 -0.69352917707E+01  0.18587820948E+02  0.13274998561E+03  0.12509000000E+03 0.  0.
         25    1    3    3    0    0  0.32943286022E+02  0.63789473048E+02  0.67436158621E+02  0.15921526483E+03  0.12509000000E+03 0.  0.
<mgrwt>
<rscale>  2 0.45715156E+03</rscale>
<asrwt>0</asrwt>
<pdfrwt beam="1">  1       21 0.35714905E-01 0.45715156E+03</pdfrwt>
<pdfrwt beam="2">  1       21 0.31636840E-01 0.45715156E+03</pdfrwt>
<totfact> 0.67166725E+04</totfact>
</mgrwt>
</event>
<event>
 6    0  0.1539497E-004  0.4088634E+03  0.7546771E-02  0.1040753E+00
         21   -1    0    0  502  501  0.00000000000E+00  0.00000000000E+00  0.14014507446E+04  0.14014507446E+04  0.00000000000E+00 0.  1.
         21   -1    0    0  501  502 -0.00000000000E+00 -0.00000000000E+00 -0.29820748251E+02  0.29820748251E+02  0.00000000000E+00 0.  1.
      99925    2    1    2    0    0  0.37009930412E+02 -0.45380517221E+02  0.96641926589E+03  0.10031682688E+04  0.26258570349E+03 0.  0.
         25    1    3    3    0    0  0.51504705462E+02 -0.88816764655E+01  0.55738424463E+03  0.57363431132E+03  0.12509000000E+03 0.  0.
         25    1    3    3    0    0 -0.14494775050E+02 -0.36498840756E+02  0.40903502126E+03  0.42953395745E+03  0.12509000000E+03 0.  0.
         25    1    1    2    0    0 -0.37009930412E+02  0.45380517221E+02  0.40521073042E+03  0.42810322405E+03  0.12509000000E+03 0.  0.
<mgrwt>
<rscale>  2 0.40886335E+03</rscale>
<asrwt>0</asrwt>
<pdfrwt beam="1">  1       21 0.20609565E+00 0.40886335E+03</pdfrwt>
<pdfrwt beam="2">  1       21 0.43854051E-02 0.40886335E+03</pdfrwt>
<totfact> 0.37149381E+04</totfact>
</mgrwt>
</event>
<event>
 6    0  0.1539497E-004  0.4650656E+03  0.7546771E-02  0.1023322E+00
         21   -1    0    0  502  501  0.00000000000E+00  0.00000000000E+00  0.73506816629E+02  0.73506816629E+02  0.00000000000E+00 0.  1.
         21   -1    0    0  501  502 -0.00000000000E+00 -0.00000000000E+00 -0.73559846175E+03  0.73559846175E+03  0.00000000000E+00 0.  1.
      99925    2    1    2    0    0  0.11678051837E+03  0.54423124448E+01 -0.47591513828E+03  0.55616949990E+03  0.26298666419E+03 0.  0.
         25    1    3    3    0    0  0.18454991370E+02 -0.15024526622E+02 -0.21565563838E+03  0.25044198045E+03  0.12509000000E+03 0.  0.
         25    1    3    3    0    0  0.98325526999E+02  0.20466839067E+02 -0.26025949989E+03  0.30572751944E+03  0.12509000000E+03 0.  0.
         25    1    1    2    0    0 -0.11678051837E+03 -0.54423124448E+01 -0.18617650684E+03  0.25293577848E+03  0.12509000000E+03 0.  0.
<mgrwt>
<rscale>  2 0.46506559E+03</rscale>
<asrwt>0</asrwt>
<pdfrwt beam="1">  1       21 0.10809826E-01 0.46506559E+03</pdfrwt>
<pdfrwt beam="2">  1       21 0.10817624E+00 0.46506559E+03</pdfrwt>
<totfact> 0.43766762E+04</totfact>
</mgrwt>
</event>
<event>
 6    0  0.1539497E-004  0.5158779E+03  0.7546771E-02  0.1009716E+00
         21   -1    0    0  502  501  0.00000000000E+00  0.00000000000E+00  0.85537713620E+03  0.85537713620E+03  0.00000000000E+00 0.  1.
         21   -1    0    0  501  502 -0.00000000000E+00 -0.00000000000E+00 -0.77781476463E+02  0.77781476463E+02  0.00000000000E+00 0.  1.
      99925    2    1    2    0    0  0.13133973416E+03 -0.90414132327E+01  0.64265931161E+03  0.70691273078E+03  0.26340604629E+03 0.  0.
         25    1    3    3    0    0  0.45703249504E+02  0.85721403445E+01  0.21734952295E+03  0.25505017513E+03  0.12509000000E+03 0.  0.
         25    1    3    3    0    0  0.85636484655E+02 -0.17613553577E+02  0.42530978866E+03  0.45186255566E+03  0.12509000000E+03 0.  0.
         25    1    1    2    0    0 -0.13133973416E+03  0.90414132327E+01  0.13493634813E+03  0.22624588188E+03  0.12509000000E+03 0.  0.
<mgrwt>
<rscale>  2 0.51587788E+03</rscale>
<asrwt>0</asrwt>
<pdfrwt beam="1">  1       21 0.12579075E+00 0.51587788E+03</pdfrwt>
<pdfrwt beam="2">  1       21 0.11438453E-01 0.51587788E+03</pdfrwt>
<totfact> 0.26669543E+04</totfact>
</mgrwt>
</event>
<event>
 6    0  0.1539497E-004  0.4062851E+03  0.7546771E-02  0.1041625E+00
         21   -1    0    0  502  501  0.00000000000E+00  0.00000000000E+00  0.15805383969E+03  0.15805383969E+03  0.00000000000E+00 0. -1.
         21   -1    0    0  501  502 -0.00000000000E+00 -0.00000000000E+00 -0.26109397252E+03  0.26109397252E+03  0.00000000000E+00 0. -1.
      99925    2    1    2    0    0  0.52766254268E+02  0.83909533392E+01 -0.85201950238E+02  0.28196036910E+03  0.26341524583E+03 0.  0.
         25    1    3    3    0    0  0.25564427624E+02  0.45025738151E+02 -0.48966676456E+02  0.14396562284E+03  0.12509000000E+03 0.  0.
         25    1    1    2    0    0 -0.52766254268E+02 -0.83909533392E+01 -0.17838182602E+02  0.13718744311E+03  0.12509000000E+03 0.  0.
         25    1    3    3    0    0  0.27201826644E+02 -0.36634784812E+02 -0.36235273781E+02  0.13799474627E+03  0.12509000000E+03 0.  0.
<mgrwt>
<rscale>  2 0.40628515E+03</rscale>
<asrwt>0</asrwt>
<pdfrwt beam="1">  1       21 0.23243212E-01 0.40628515E+03</pdfrwt>
<pdfrwt beam="2">  1       21 0.38396172E-01 0.40628515E+03</pdfrwt>
<totfact> 0.10722750E+05</totfact>
</mgrwt>
</event>
<event>
 6    0  0.1539497E-004  0.5661372E+03  0.7546771E-02  0.9978263E-01
         21   -1    0    0  502  501  0.00000000000E+00  0.00000000000E+00  0.78855238393E+03  0.78855238393E+03  0.00000000000E+00 0. -1.
         21   -1    0    0  501  502 -0.00000000000E+00 -0.00000000000E+00 -0.10161384680E+03  0.10161384680E+03  0.00000000000E+00 0. -1.
      99925    2    1    2    0    0 -0.19651496372E+03  0.30138229718E+00  0.45823785805E+03  0.56371603466E+03  0.26301256888E+03 0.  0.
         25    1    1    2    0    0  0.19651496372E+03 -0.30138229718E+00  0.22870067908E+03  0.32645019606E+03  0.12509000000E+03 0.  0.
         25    1    3    3    0    0 -0.11140185436E+03 -0.35539457875E+02  0.21230388660E+03  0.27275240528E+03  0.12509000000E+03 0.  0.
         25    1    3    3    0    0 -0.85113109363E+02  0.35840840173E+02  0.24593397145E+03  0.29096362938E+03  0.12509000000E+03 0.  0.
<mgrwt>
<rscale>  2 0.56613723E+03</rscale>
<asrwt>0</asrwt>
<pdfrwt beam="1">  1       21 0.11596358E+00 0.56613723E+03</pdfrwt>
<pdfrwt beam="2">  1       21 0.14943213E-01 0.56613723E+03</pdfrwt>
<totfact> 0.19851111E+04</totfact>
</mgrwt>
</event>
<event>
 6    0  0.1539497E-004  0.4355304E+03  0.7546771E-02  0.1032127E+00
         21   -1    0    0  502  501  0.00000000000E+00  0.00000000000E+00  0.46118744430E+03  0.46118744430E+03  0.00000000000E+00 0.  1.
         21   -1    0    0  501  502 -0.00000000000E+00 -0.00000000000E+00 -0.10282519330E+03  0.10282519330E+03  0.00000000000E+00 0.  1.
      99925    2    1    2    0    0  0.73504738163E+01  0.91905090185E+02  0.25045053090E+03  0.37482219782E+03  0.26318365543E+03 0.  0.
         25    1    1    2    0    0 -0.73504738163E+01 -0.91905090185E+02  0.10791172011E+03  0.18919043978E+03  0.12509000000E+03 0.  0.
         25    1    3    3    0    0 -0.18216133891E+01  0.87205956078E+02  0.12271930695E+03  0.19574405087E+03  0.12509000000E+03 0.  0.
         25    1    3    3    0    0  0.91720872054E+01  0.46991341063E+01  0.12773122394E+03  0.17907814695E+03  0.12509000000E+03 0.  0.
<mgrwt>
<rscale>  2 0.43553043E+03</rscale>
<asrwt>0</asrwt>
<pdfrwt beam="1">  1       21 0.67821682E-01 0.43553043E+03</pdfrwt>
<pdfrwt beam="2">  1       21 0.15121352E-01 0.43553043E+03</pdfrwt>
<totfact> 0.71312531E+04</totfact>
</mgrwt>
</event>
<event>
 6    0  0.1539497E-004  0.4073512E+03  0.7546771E-02  0.1041264E+00
         21   -1    0    0  502  501  0.00000000000E+00  0.00000000000E+00  0.19837928908E+03  0.19837928908E+03  0.00000000000E+00 0. -1.
         21   -1    0    0  501  502 -0.00000000000E+00 -0.00000000000E+00 -0.20911330362E+03  0.20911330362E+03  0.00000000000E+00 0. -1.
      99925    2    1    2    0    0  0.59692325980E+01 -0.12331682699E+02 -0.63758985179E+02  0.27093909496E+03  0.26297354021E+03 0.  0.
         25    1    3    3    0    0 -0.19932736735E+02 -0.87151290683E+01 -0.66057617758E+02  0.14312366832E+03  0.12509000000E+03 0.  0.
         25    1    3    3    0    0  0.25901969333E+02 -0.36165536304E+01  0.22986325794E+01  0.12781542664E+03  0.12509000000E+03 0.  0.
         25    1    1    2    0    0 -0.59692325980E+01  0.12331682699E+02  0.53024970631E+02  0.13655349774E+03  0.12509000000E+03 0.  0.
<mgrwt>
<rscale>  2 0.40735119E+03</rscale>
<asrwt>0</asrwt>
<pdfrwt beam="1">  1       21 0.29173425E-01 0.40735119E+03</pdfrwt>
<pdfrwt beam="2">  1       21 0.30751956E-01 0.40735119E+03</pdfrwt>
<totfact> 0.10763872E+05</totfact>
</mgrwt>
</event>
<event>
 6    0  0.1539497E-004  0.4224163E+03  0.7546771E-02  0.1036283E+00
         21   -1    0    0  502  501  0.00000000000E+00  0.00000000000E+00  0.48601424065E+03  0.48601424065E+03  0.00000000000E+00 0. -1.
         21   -1    0    0  501  502 -0.00000000000E+00 -0.00000000000E+00 -0.91785153418E+02  0.91785153418E+02  0.00000000000E+00 0. -1.
      99925    2    1    2    0    0  0.33846223510E+02 -0.60913667676E+02  0.30667743530E+03  0.40996363622E+03  0.26298876772E+03 0.  0.
         25    1    1    2    0    0 -0.33846223510E+02  0.60913667676E+02  0.87551651931E+02  0.16783575784E+03  0.12509000000E+03 0.  0.
         25    1    3    3    0    0  0.23474279592E+02 -0.23910266962E+02  0.21208162583E+03  0.24849319263E+03  0.12509000000E+03 0.  0.
         25    1    3    3    0    0  0.10371943917E+02 -0.37003400713E+02  0.94595809476E+02  0.16147044360E+03  0.12509000000E+03 0.  0.
<mgrwt>
<rscale>  2 0.42241634E+03</rscale>
<asrwt>0</asrwt>
<pdfrwt beam="1">  1       21 0.71472681E-01 0.42241634E+03</pdfrwt>
<pdfrwt beam="2">  1       21 0.13497817E-01 0.42241634E+03</pdfrwt>
<totfact> 0.78389660E+04</totfact>
</mgrwt>
</event>
<event>
 6    0  0.1539497E-004  0.4261837E+03  0.7546771E-02  0.1035072E+00
         21   -1    0    0  502  501  0.00000000000E+00  0.00000000000E+00  0.51430484161E+03  0.51430484161E+03  0.00000000000E+00 0.  1.
         21   -1    0    0  501  502 -0.00000000000E+00 -0.00000000000E+00 -0.88290300175E+02  0.88290300175E+02  0.00000000000E+00 0.  1.
      99925    2    1    2    0    0 -0.36421891170E+02  0.67005138117E+02  0.32334436769E+03  0.42369596524E+03  0.26296472797E+03 0.  0.
         25    1    3    3    0    0 -0.33779448541E+02  0.39386464638E+02  0.10842791711E+03  0.17348333075E+03  0.12509000000E+03 0.  0.
         25    1    3    3    0    0 -0.26424426296E+01  0.27618673480E+02  0.21491645058E+03  0.25021263449E+03  0.12509000000E+03 0.  0.
         25    1    1    2    0    0  0.36421891170E+02 -0.67005138117E+02  0.10267017374E+03  0.17889917654E+03  0.12509000000E+03 0.  0.
<mgrwt>
<rscale>  2 0.42618366E+03</rscale>
<asrwt>0</asrwt>
<pdfrwt beam="1">  1       21 0.75633063E-01 0.42618366E+03</pdfrwt>
<pdfrwt beam="2">  1       21 0.12983868E-01 0.42618366E+03</pdfrwt>
<totfact> 0.73973708E+04</totfact>
</mgrwt>
</event>
<event>
 6    0  0.1539497E-004  0.4103801E+03  0.7546771E-02  0.1040244E+00
         21   -1    0    0  502  501  0.00000000000E+00  0.00000000000E+00  0.39839939823E+03  0.39839939823E+03  0.00000000000E+00 0. -1.
         21   -1    0    0  501  502 -0.00000000000E+00 -0.00000000000E+00 -0.10568025429E+03  0.10568025429E+03  0.00000000000E+00 0. -1.
      99925    2    1    2    0    0  0.34861220043E+02  0.42625690954E+02  0.15652560349E+03  0.31113291698E+03  0.26319417412E+03 0.  0.
         25    1    3    3    0    0  0.55965259270E+02  0.88539576081E+01  0.72770503336E+02  0.15541414693E+03  0.12509000000E+03 0.  0.
         25    1    3    3    0    0 -0.21104039227E+02  0.33771733346E+02  0.83755100154E+02  0.15571877005E+03  0.12509000000E+03 0.  0.
         25    1    1    2    0    0 -0.34861220043E+02 -0.42625690954E+02  0.13619354045E+03  0.19294673553E+03  0.12509000000E+03 0.  0.
<mgrwt>
<rscale>  2 0.41038007E+03</rscale>
<asrwt>0</asrwt>
<pdfrwt beam="1">  1       21 0.58588146E-01 0.41038007E+03</pdfrwt>
<pdfrwt beam="2">  1       21 0.15541214E-01 0.41038007E+03</pdfrwt>
<totfact> 0.94117318E+04</totfact>
</mgrwt>
</event>
<event>
 6    0  0.1539497E-004  0.4378000E+03  0.7546771E-02  0.1031424E+00
         21   -1    0    0  502  501  0.00000000000E+00  0.00000000000E+00  0.88558203721E+02  0.88558203721E+02  0.00000000000E+00 0. -1.
         21   -1    0    0  501  502 -0.00000000000E+00 -0.00000000000E+00 -0.54108164142E+03  0.54108164142E+03  0.00000000000E+00 0. -1.
      99925    2    1    2    0    0  0.80555574750E+02  0.17197211279E+02 -0.21842037793E+03  0.35172493840E+03  0.26309318899E+03 0.  0.
         25    1    3    3    0    0  0.61860177761E+02 -0.40091596337E+01 -0.71992837627E+02  0.15707715214E+03  0.12509000000E+03 0.  0.
         25    1    1    2    0    0 -0.80555574750E+02 -0.17197211279E+02 -0.23410305976E+03  0.27791490674E+03  0.12509000000E+03 0.  0.
         25    1    3    3    0    0  0.18695396989E+02  0.21206370913E+02 -0.14642754031E+03  0.19464778626E+03  0.12509000000E+03 0.  0.
<mgrwt>
<rscale>  2 0.43780004E+03</rscale>
<asrwt>0</asrwt>
<pdfrwt beam="1">  1       21 0.13023265E-01 0.43780004E+03</pdfrwt>
<pdfrwt beam="2">  1       21 0.79570830E-01 0.43780004E+03</pdfrwt>
<totfact> 0.65315899E+04</totfact>
</mgrwt>
</event>
<event>
 6    0  0.1539497E-004  0.4150919E+03  0.7546771E-02  0.1038676E+00
         21   -1    0    0  502  501  0.00000000000E+00  0.00000000000E+00  0.38282758698E+03  0.38282758698E+03  0.00000000000E+00 0. -1.
         21   -1    0    0  501  502 -0.00000000000E+00 -0.00000000000E+00 -0.11251884772E+03  0.11251884772E+03  0.00000000000E+00 0. -1.
      99925    2    1    2    0    0  0.66592711725E+01 -0.57361532043E+02  0.13097436509E+03  0.29939678001E+03  0.26296284208E+03 0.  0.
         25    1    3    3    0    0 -0.13541897366E+02 -0.90510217370E+01  0.98257828794E+02  0.15989813319E+03  0.12509000000E+03 0.  0.
         25    1    3    3    0    0  0.20201168539E+02 -0.48310510306E+02  0.32716536297E+02  0.13949864682E+03  0.12509000000E+03 0.  0.
         25    1    1    2    0    0 -0.66592711725E+01  0.57361532043E+02  0.13933437416E+03  0.19594965469E+03  0.12509000000E+03 0.  0.
<mgrwt>
<rscale>  2 0.41509189E+03</rscale>
<asrwt>0</asrwt>
<pdfrwt beam="1">  1       21 0.56298174E-01 0.41509189E+03</pdfrwt>
<pdfrwt beam="2">  1       21 0.16546890E-01 0.41509189E+03</pdfrwt>
<totfact> 0.91228842E+04</totfact>
</mgrwt>
</event>
<event>
 6    0  0.1539497E-004  0.4210458E+03  0.7546771E-02  0.1036726E+00
         21   -1    0    0  502  501  0.00000000000E+00  0.00000000000E+00  0.25708369449E+02  0.25708369449E+02  0.00000000000E+00 0.  1.
         21   -1    0    0  501  502 -0.00000000000E+00 -0.00000000000E+00 -0.17239479999E+04  0.17239479999E+04  0.00000000000E+00 0.  1.
      99925    2    1    2    0    0 -0.36889367130E+02  0.32524591633E+02 -0.13526633183E+04  0.13788610483E+04  0.26294688338E+03 0.  0.
         25    1    3    3    0    0 -0.49893488388E+02  0.33462508710E+02 -0.81117592664E+03  0.82295989680E+03  0.12509000000E+03 0.  0.
         25    1    3    3    0    0  0.13004121258E+02 -0.93791707705E+00 -0.54148739161E+03  0.55590115149E+03  0.12509000000E+03 0.  0.
         25    1    1    2    0    0  0.36889367130E+02 -0.32524591633E+02 -0.34557631224E+03  0.37079532110E+03  0.12509000000E+03 0.  0.
<mgrwt>
<rscale>  2 0.42104580E+03</rscale>
<asrwt>0</asrwt>
<pdfrwt beam="1">  1       21 0.37806422E-02 0.42104580E+03</pdfrwt>
<pdfrwt beam="2">  1       21 0.25352179E+00 0.42104580E+03</pdfrwt>
<totfact> 0.23968739E+04</totfact>
</mgrwt>
</event>
<event>
 6    0  0.1539497E-004  0.4958461E+03  0.7546771E-02  0.1014869E+00
         21   -1    0    0  502  501  0.00000000000E+00  0.00000000000E+00  0.16551060309E+03  0.16551060309E+03  0.00000000000E+00 0. -1.
         21   -1    0    0  501  502 -0.00000000000E+00 -0.00000000000E+00 -0.37137098981E+03  0.37137098981E+03  0.00000000000E+00 0. -1.
      99925    2    1    2    0    0  0.13464252529E+03 -0.46048868250E+02 -0.79371395040E+02  0.30907447932E+03  0.26263683583E+03 0.  0.
         25    1    3    3    0    0  0.88165526211E+02 -0.57931230892E+02 -0.30426157518E+02  0.16644051996E+03  0.12509000000E+03 0.  0.
         25    1    1    2    0    0 -0.13464252529E+03  0.46048868250E+02 -0.12648899168E+03  0.22780711358E+03  0.12509000000E+03 0.  0.
         25    1    3    3    0    0  0.46476999076E+02  0.11882362641E+02 -0.48945237522E+02  0.14263395935E+03  0.12509000000E+03 0.  0.
<mgrwt>
<rscale>  2 0.49584609E+03</rscale>
<asrwt>0</asrwt>
<pdfrwt beam="1">  1       21 0.24339795E-01 0.49584609E+03</pdfrwt>
<pdfrwt beam="2">  1       21 0.54613380E-01 0.49584609E+03</pdfrwt>
<totfact> 0.45951391E+04</totfact>
</mgrwt>
</event>
<event>
 6    0  0.1539497E-004  0.4260113E+03  0.7546771E-02  0.1035127E+00
         21   -1    0    0  502  501  0.00000000000E+00  0.00000000000E+00  0.99440163000E+02  0.99440163000E+02  0.00000000000E+00 0.  1.
         21   -1    0    0  501  502 -0.00000000000E+00 -0.00000000000E+00 -0.45626832318E+03  0.45626832318E+03  0.00000000000E+00 0.  1.
      99925    2    1    2    0    0 -0.42267492326E+02  0.24725200428E+02 -0.31860092408E+03  0.41604207603E+03  0.26303342708E+03 0.  0.
         25    1    1    2    0    0  0.42267492326E+02 -0.24725200428E+02 -0.38227236099E+02  0.13966641015E+03  0.12509000000E+03 0.  0.
         25    1    3    3    0    0  0.34481975636E+01 -0.54279915716E+01 -0.10988085504E+03  0.16662131786E+03  0.12509000000E+03 0.  0.
         25    1    3    3    0    0 -0.45715689890E+02  0.30153191999E+02 -0.20872006903E+03  0.24942075817E+03  0.12509000000E+03 0.  0.
<mgrwt>
<rscale>  2 0.42601125E+03</rscale>
<asrwt>0</asrwt>
<pdfrwt beam="1">  1       21 0.14623553E-01 0.42601125E+03</pdfrwt>
<pdfrwt beam="2">  1       21 0.67098283E-01 0.42601125E+03</pdfrwt>
<totfact> 0.77869414E+04</totfact>
</mgrwt>
</event>
<event>
 6    0  0.1539497E-004  0.5220164E+03  0.7546771E-02  0.1008187E+00
         21   -1    0    0  502  501  0.00000000000E+00  0.00000000000E+00  0.10005782545E+04  0.10005782545E+04  0.00000000000E+00 0. -1.
         21   -1    0    0  501  502 -0.00000000000E+00 -0.00000000000E+00 -0.68085920895E+02  0.68085920895E+02  0.00000000000E+00 0. -1.
      99925    2    1    2    0    0  0.81033437823E+02 -0.10315542239E+03  0.77387006896E+03  0.82779908834E+03  0.26299997682E+03 0.  0.
         25    1    3    3    0    0  0.74607596468E+02 -0.58869610064E+02  0.48581098252E+03  0.51057981088E+03  0.12509000000E+03 0.  0.
         25    1    3    3    0    0  0.64258413557E+01 -0.44285812329E+02  0.28805908644E+03  0.31721927746E+03  0.12509000000E+03 0.  0.
         25    1    1    2    0    0 -0.81033437823E+02  0.10315542239E+03  0.15862226460E+03  0.24086508701E+03  0.12509000000E+03 0.  0.
<mgrwt>
<rscale>  2 0.52201644E+03</rscale>
<asrwt>0</asrwt>
<pdfrwt beam="1">  1       21 0.14714385E+00 0.52201644E+03</pdfrwt>
<pdfrwt beam="2">  1       21 0.10012636E-01 0.52201644E+03</pdfrwt>
<totfact> 0.22389389E+04</totfact>
</mgrwt>
</event>
<event>
 6    0  0.1539497E-004  0.4494211E+03  0.7546771E-02  0.1027895E+00
         21   -1    0    0  502  501  0.00000000000E+00  0.00000000000E+00  0.61834833440E+03  0.61834833440E+03  0.00000000000E+00 0.  1.
         21   -1    0    0  501  502 -0.00000000000E+00 -0.00000000000E+00 -0.81660830684E+02  0.81660830684E+02  0.00000000000E+00 0.  1.
      99925    2    1    2    0    0  0.51003020306E+02  0.82955346300E+02  0.41119885724E+03  0.49782655937E+03  0.26318032878E+03 0.  0.
         25    1    1    2    0    0 -0.51003020306E+02 -0.82955346300E+02  0.12548864648E+03  0.20218260572E+03  0.12509000000E+03 0.  0.
         25    1    3    3    0    0  0.58967877965E+02  0.18954476798E+02  0.21618468132E+03  0.25733209547E+03  0.12509000000E+03 0.  0.
         25    1    3    3    0    0 -0.79648576581E+01  0.64000869502E+02  0.19501417592E+03  0.24049446390E+03  0.12509000000E+03 0.  0.
<mgrwt>
<rscale>  2 0.44942113E+03</rscale>
<asrwt>0</asrwt>
<pdfrwt beam="1">  1       21 0.90933577E-01 0.44942113E+03</pdfrwt>
<pdfrwt beam="2">  1       21 0.12008946E-01 0.44942113E+03</pdfrwt>
<totfact> 0.55290225E+04</totfact>
</mgrwt>
</event>
<event>
 6    0  0.1539497E-004  0.4367912E+03  0.7546771E-02  0.1031736E+00
         21   -1    0    0  502  501  0.00000000000E+00  0.00000000000E+00  0.17279892344E+02  0.17279892344E+02  0.00000000000E+00 0. -1.
         21   -1    0    0  501  502 -0.00000000000E+00 -0.00000000000E+00 -0.27602396991E+04  0.27602396991E+04  0.00000000000E+00 0. -1.
      99925    2    1    2    0    0  0.70426263127E+02  0.14864159564E+02 -0.13616389376E+04  0.13886799126E+04  0.26304087435E+03 0.  0.
         25    1    3    3    0    0  0.57695418940E+02  0.28070421492E+02 -0.57442173273E+03  0.59137513058E+03  0.12509000000E+03 0.  0.
         25    1    1    2    0    0 -0.70426263127E+02 -0.14864159564E+02 -0.13813208691E+04  0.13888396788E+04  0.12509000000E+03 0.  0.
         25    1    3    3    0    0  0.12730844188E+02 -0.13206261929E+02 -0.78721720486E+03  0.79730478204E+03  0.12509000000E+03 0.  0.
<mgrwt>
<rscale>  2 0.43679123E+03</rscale>
<asrwt>0</asrwt>
<pdfrwt beam="1">  1       21 0.25411603E-02 0.43679123E+03</pdfrwt>
<pdfrwt beam="2">  1       21 0.40591766E+00 0.43679123E+03</pdfrwt>
<totfact> 0.54161534E+03</totfact>
</mgrwt>
</event>
<event>
 6    0  0.1539497E-004  0.4409559E+03  0.7546771E-02  0.1030454E+00
         21   -1    0    0  502  501  0.00000000000E+00  0.00000000000E+00  0.77567412338E+02  0.77567412338E+02  0.00000000000E+00 0.  1.
         21   -1    0    0  501  502 -0.00000000000E+00 -0.00000000000E+00 -0.62668742667E+03  0.62668742667E+03  0.00000000000E+00 0.  1.
      99925    2    1    2    0    0 -0.72444174466E+02 -0.68199192792E+02 -0.34975512639E+03  0.44872958594E+03  0.26292642421E+03 0.  0.
         25    1    3    3    0    0 -0.10263020822E+02 -0.77530998829E+00 -0.16975156931E+03  0.21111379416E+03  0.12509000000E+03 0.  0.
         25    1    1    2    0    0  0.72444174466E+02  0.68199192792E+02 -0.19936488794E+03  0.25552525307E+03  0.12509000000E+03 0.  0.
         25    1    3    3    0    0 -0.62181153644E+02 -0.67423882803E+02 -0.18000355708E+03  0.23761579178E+03  0.12509000000E+03 0.  0.
<mgrwt>
<rscale>  2 0.44095588E+03</rscale>
<asrwt>0</asrwt>
<pdfrwt beam="1">  1       21 0.11406973E-01 0.44095588E+03</pdfrwt>
<pdfrwt beam="2">  1       21 0.92159914E-01 0.44095588E+03</pdfrwt>
<totfact> 0.58918606E+04</totfact>
</mgrwt>
</event>
<event>
 6    0  0.1539497E-004  0.4342270E+03  0.7546771E-02  0.1032533E+00
         21   -1    0    0  502  501  0.00000000000E+00  0.00000000000E+00  0.33414460680E+03  0.33414460680E+03  0.00000000000E+00 0. -1.
         21   -1    0    0  501  502 -0.00000000000E+00 -0.00000000000E+00 -0.14107149977E+03  0.14107149977E+03  0.00000000000E+00 0. -1.
      99925    2    1    2    0    0 -0.32181407974E+02 -0.60356189346E+02  0.56163208692E+02  0.27755391753E+03  0.26306531226E+03 0.  0.
         25    1    3    3    0    0 -0.15101413518E+02 -0.10044374483E+02  0.63495321486E+02  0.14145001272E+03  0.12509000000E+03 0.  0.
         25    1    3    3    0    0 -0.17079994456E+02 -0.50311814862E+02 -0.73321127947E+01  0.13610390481E+03  0.12509000000E+03 0.  0.
         25    1    1    2    0    0  0.32181407974E+02  0.60356189346E+02  0.13690989834E+03  0.19766218904E+03  0.12509000000E+03 0.  0.
<mgrwt>
<rscale>  2 0.43422704E+03</rscale>
<asrwt>0</asrwt>
<pdfrwt beam="1">  1       21 0.49138913E-01 0.43422704E+03</pdfrwt>
<pdfrwt beam="2">  1       21 0.20745809E-01 0.43422704E+03</pdfrwt>
<totfact> 0.79349535E+04</totfact>
</mgrwt>
</event>
<event>
 6    0  0.1539497E-004  0.4064286E+03  0.7546771E-02  0.1041576E+00
         21   -1    0    0  502  501  0.00000000000E+00  0.00000000000E+00  0.39814593650E+03  0.39814593650E+03  0.00000000000E+00 0. -1.
         21   -1    0    0  501  502 -0.00000000000E+00 -0.00000000000E+00 -0.10372088978E+03  0.10372088978E+03  0.00000000000E+00 0. -1.
      99925    2    1    2    0    0  0.51194786970E+02  0.23807722488E+02  0.19830548775E+03  0.33431327789E+03  0.26315886350E+03 0.  0.
         25    1    1    2    0    0 -0.51194786970E+02 -0.23807722488E+02  0.96119558968E+02  0.16755354839E+03  0.12509000000E+03 0.  0.
         25    1    3    3    0    0  0.36397409392E+02 -0.38551414805E+00  0.14632307013E+03  0.19591546387E+03  0.12509000000E+03 0.  0.
         25    1    3    3    0    0  0.14797377578E+02  0.24193236636E+02  0.51982417619E+02  0.13839781401E+03  0.12509000000E+03 0.  0.
<mgrwt>
<rscale>  2 0.40642860E+03</rscale>
<asrwt>0</asrwt>
<pdfrwt beam="1">  1       21 0.58550872E-01 0.40642860E+03</pdfrwt>
<pdfrwt beam="2">  1       21 0.15253072E-01 0.40642860E+03</pdfrwt>
<totfact> 0.97658022E+04</totfact>
</mgrwt>
</event>
<event>
 6    0  0.1539497E-004  0.4201398E+03  0.7546771E-02  0.1037021E+00
         21   -1    0    0  502  501  0.00000000000E+00  0.00000000000E+00  0.64976427064E+03  0.64976427064E+03  0.00000000000E+00 0. -1.
         21   -1    0    0  501  502 -0.00000000000E+00 -0.00000000000E+00 -0.67915961666E+02  0.67915961666E+02  0.00000000000E+00 0. -1.
      99925    2    1    2    0    0  0.19685734484E+02 -0.30641168696E+02  0.49302819313E+03  0.56000039707E+03  0.26305367539E+03 0.  0.
         25    1    1    2    0    0 -0.19685734484E+02  0.30641168696E+02  0.88820115848E+02  0.15767983524E+03  0.12509000000E+03 0.  0.
         25    1    3    3    0    0 -0.27851964114E+01 -0.14784355208E+02  0.16318022942E+03  0.20615923421E+03  0.12509000000E+03 0.  0.
         25    1    3    3    0    0  0.22470930896E+02 -0.15856813488E+02  0.32984796371E+03  0.35384116286E+03  0.12509000000E+03 0.  0.
<mgrwt>
<rscale>  2 0.42013981E+03</rscale>
<asrwt>0</asrwt>
<pdfrwt beam="1">  1       21 0.95553566E-01 0.42013981E+03</pdfrwt>
<pdfrwt beam="2">  1       21 0.99876418E-02 0.42013981E+03</pdfrwt>
<totfact> 0.69020784E+04</totfact>
</mgrwt>
</event>
<event>
 6    0  0.1539497E-004  0.4147159E+03  0.7546771E-02  0.1038800E+00
         21   -1    0    0  502  501  0.00000000000E+00  0.00000000000E+00  0.11354228304E+03  0.11354228304E+03  0.00000000000E+00 0. -1.
         21   -1    0    0  501  502 -0.00000000000E+00 -0.00000000000E+00 -0.37868985363E+03  0.37868985363E+03  0.00000000000E+00 0. -1.
      99925    2    1    2    0    0  0.67181498342E+02 -0.71929926798E+01 -0.18878820265E+03  0.33085260255E+03  0.26316794313E+03 0.  0.
         25    1    3    3    0    0  0.13317201530E+02 -0.38031331034E+02 -0.80194375029E+02  0.15395575950E+03  0.12509000000E+03 0.  0.
         25    1    1    2    0    0 -0.67181498342E+02  0.71929926798E+01 -0.76359367937E+02  0.16137953413E+03  0.12509000000E+03 0.  0.
         25    1    3    3    0    0  0.53864296811E+02  0.30838338354E+02 -0.10859382762E+03  0.17689684305E+03  0.12509000000E+03 0.  0.
<mgrwt>
<rscale>  2 0.41471586E+03</rscale>
<asrwt>0</asrwt>
<pdfrwt beam="1">  1       21 0.16697395E-01 0.41471586E+03</pdfrwt>
<pdfrwt beam="2">  1       21 0.55689683E-01 0.41471586E+03</pdfrwt>
<totfact> 0.91837407E+04</totfact>
</mgrwt>
</event>
<event>
 6    0  0.1539497E-004  0.3977940E+03  0.7546771E-02  0.1044546E+00
         21   -1    0    0  502  501  0.00000000000E+00  0.00000000000E+00  0.46549503708E+02  0.46549503708E+02  0.00000000000E+00 0. -1.
         21   -1    0    0  501  502 -0.00000000000E+00 -0.00000000000E+00 -0.84984831997E+03  0.84984831997E+03  0.00000000000E+00 0. -1.
      99925    2    1    2    0    0  0.12461343253E+02  0.32813401138E+02 -0.48977920194E+03  0.55702478256E+03  0.26298467136E+03 0.  0.
         25    1    3    3    0    0 -0.18314708866E+02  0.94005798845E+01 -0.30739487418E+03  0.33251002427E+03  0.12509000000E+03 0.  0.
         25    1    3    3    0    0  0.30776052119E+02  0.23412821253E+02 -0.18238432775E+03  0.22451475830E+03  0.12509000000E+03 0.  0.
         25    1    1    2    0    0 -0.12461343253E+02 -0.32813401138E+02 -0.31351961433E+03  0.33937304112E+03  0.12509000000E+03 0.  0.
<mgrwt>
<rscale>  2 0.39779400E+03</rscale>
<asrwt>0</asrwt>
<pdfrwt beam="1">  1       21 0.68455159E-02 0.39779400E+03</pdfrwt>
<pdfrwt beam="2">  1       21 0.12497768E+00 0.39779400E+03</pdfrwt>
<totfact> 0.69772042E+04</totfact>
</mgrwt>
</event>
<event>
 6    0  0.1539497E-004  0.4492012E+03  0.7546771E-02  0.1027961E+00
         21   -1    0    0  502  501  0.00000000000E+00  0.00000000000E+00  0.15140128378E+03  0.15140128378E+03  0.00000000000E+00 0.  1.
         21   -1    0    0  501  502 -0.00000000000E+00 -0.00000000000E+00 -0.33319023640E+03  0.33319023640E+03  0.00000000000E+00 0.  1.
      99925    2    1    2    0    0  0.24443360412E+02 -0.36867968394E+02 -0.22086122235E+03  0.34627711267E+03  0.26300462783E+03 0.  0.
         25    1    3    3    0    0 -0.14484249006E+02 -0.11018957587E+02 -0.68837234752E+02  0.14393499881E+03  0.12509000000E+03 0.  0.
         25    1    1    2    0    0 -0.24443360412E+02  0.36867968394E+02  0.39072269735E+02  0.13831440751E+03  0.12509000000E+03 0.  0.
         25    1    3    3    0    0  0.38927609418E+02 -0.25849010807E+02 -0.15202398760E+03  0.20234211386E+03  0.12509000000E+03 0.  0.
<mgrwt>
<rscale>  2 0.44920120E+03</rscale>
<asrwt>0</asrwt>
<pdfrwt beam="1">  1       21 0.22264895E-01 0.44920120E+03</pdfrwt>
<pdfrwt beam="2">  1       21 0.48998563E-01 0.44920120E+03</pdfrwt>
<totfact> 0.69512640E+04</totfact>
</mgrwt>
</event>
<event>
 6    0  0.1539497E-004  0.4228381E+03  0.7546771E-02  0.1036147E+00
         21   -1    0    0  502  501  0.00000000000E+00  0.00000000000E+00  0.29801597457E+03  0.29801597457E+03  0.00000000000E+00 0. -1.
         21   -1    0    0  501  502 -0.00000000000E+00 -0.00000000000E+00 -0.14998531426E+03  0.14998531426E+03  0.00000000000E+00 0. -1.
      99925    2    1    2    0    0  0.14737947034E+02 -0.36992787363E+01  0.13684678669E+02  0.26380779647E+03  0.26301405153E+03 0.  0.
         25    1    3    3    0    0  0.26751286101E+02  0.32726406496E+02 -0.18429627432E+01  0.13205132942E+03  0.12509000000E+03 0.  0.
         25    1    3    3    0    0 -0.12013339067E+02 -0.36425685232E+02  0.15527641412E+02  0.13175646704E+03  0.12509000000E+03 0.  0.
         25    1    1    2    0    0 -0.14737947034E+02  0.36992787363E+01  0.13434598165E+03  0.18419349237E+03  0.12509000000E+03 0.  0.
<mgrwt>
<rscale>  2 0.42283812E+03</rscale>
<asrwt>0</asrwt>
<pdfrwt beam="1">  1       21 0.43825879E-01 0.42283812E+03</pdfrwt>
<pdfrwt beam="2">  1       21 0.22056664E-01 0.42283812E+03</pdfrwt>
<totfact> 0.89964033E+04</totfact>
</mgrwt>
</event>
<event>
 6    0  0.1539497E-004  0.4574724E+03  0.7546771E-02  0.1025517E+00
         21   -1    0    0  502  501  0.00000000000E+00  0.00000000000E+00  0.24521230236E+03  0.24521230236E+03  0.00000000000E+00 0.  1.
         21   -1    0    0  501  502 -0.00000000000E+00 -0.00000000000E+00 -0.21336711304E+03  0.21336711304E+03  0.00000000000E+00 0.  1.
      99925    2    1    2    0    0  0.10996308612E+03  0.23143133135E+01  0.55560655913E+02  0.29033207422E+03  0.26288493772E+03 0.  0.
         25    1    3    3    0    0  0.94506127363E+02  0.16913842934E+02  0.38381753202E+02  0.16229033634E+03  0.12509000000E+03 0.  0.
         25    1    3    3    0    0  0.15456958761E+02 -0.14599529621E+02  0.17178902710E+02  0.12804173787E+03  0.12509000000E+03 0.  0.
         25    1    1    2    0    0 -0.10996308612E+03 -0.23143133135E+01 -0.23715466592E+02  0.16824734117E+03  0.12509000000E+03 0.  0.
<mgrwt>
<rscale>  2 0.45747236E+03</rscale>
<asrwt>0</asrwt>
<pdfrwt beam="1">  1       21 0.36060633E-01 0.45747236E+03</pdfrwt>
<pdfrwt beam="2">  1       21 0.31377517E-01 0.45747236E+03</pdfrwt>
<totfact> 0.66953856E+04</totfact>
</mgrwt>
</event>
<event>
 6    0  0.1539497E-004  0.4689887E+03  0.7546771E-02  0.1022206E+00
         21   -1    0    0  502  501  0.00000000000E+00  0.00000000000E+00  0.27977297958E+03  0.27977297958E+03  0.00000000000E+00 0. -1.
         21   -1    0    0  501  502 -0.00000000000E+00 -0.00000000000E+00 -0.19654367905E+03  0.19654367905E+03  0.00000000000E+00 0. -1.
      99925    2    1    2    0    0 -0.11934874332E+03 -0.27665698672E+02  0.22395041267E+02  0.29095801002E+03  0.26295534281E+03 0.  0.
         25    1    3    3    0    0 -0.67328180522E+02  0.23866956365E+02  0.23818567513E+02  0.14600530044E+03  0.12509000000E+03 0.  0.
         25    1    3    3    0    0 -0.52020562794E+02 -0.51532655036E+02 -0.14235262463E+01  0.14495270958E+03  0.12509000000E+03 0.  0.
         25    1    1    2    0    0  0.11934874332E+03  0.27665698672E+02  0.60834259263E+02  0.18535864861E+03  0.12509000000E+03 0.  0.
<mgrwt>
<rscale>  2 0.46898874E+03</rscale>
<asrwt>0</asrwt>
<pdfrwt beam="1">  1       21 0.41143085E-01 0.46898874E+03</pdfrwt>
<pdfrwt beam="2">  1       21 0.28903482E-01 0.46898874E+03</pdfrwt>
<totfact> 0.60021009E+04</totfact>
</mgrwt>
</event>
<event>
 6    0  0.1539497E-004  0.4287123E+03  0.7546771E-02  0.1034268E+00
         21   -1    0    0  502  501  0.00000000000E+00  0.00000000000E+00  0.92530952091E+02  0.92530952091E+02  0.00000000000E+00 0. -1.
         21   -1    0    0  501  502 -0.00000000000E+00 -0.00000000000E+00 -0.49657503241E+03  0.49657503241E+03  0.00000000000E+00 0. -1.
      99925    2    1    2    0    0  0.17981571646E+02  0.84278810924E+02 -0.25617764278E+03  0.37711955489E+03  0.26299414277E+03 0.  0.
         25    1    1    2    0    0 -0.17981571646E+02 -0.84278810924E+02 -0.14786643754E+03  0.21198642962E+03  0.12509000000E+03 0.  0.
         25    1    3    3    0    0  0.38774964877E+02  0.47665546010E+02 -0.16849180962E+03  0.21866069648E+03  0.12509000000E+03 0.  0.
         25    1    3    3    0    0 -0.20793393231E+02  0.36613264914E+02 -0.87685833156E+02  0.15845885840E+03  0.12509000000E+03 0.  0.
<mgrwt>
<rscale>  2 0.42871231E+03</rscale>
<asrwt>0</asrwt>
<pdfrwt beam="1">  1       21 0.13607493E-01 0.42871231E+03</pdfrwt>
<pdfrwt beam="2">  1       21 0.73025740E-01 0.42871231E+03</pdfrwt>
<totfact> 0.73468019E+04</totfact>
</mgrwt>
</event>
<event>
 6    0  0.1539497E-004  0.4091459E+03  0.7546771E-02  0.1040658E+00
         21   -1    0    0  502  501  0.00000000000E+00  0.00000000000E+00  0.13248296677E+03  0.13248296677E+03  0.00000000000E+00 0.  1.
         21   -1    0    0  501  502 -0.00000000000E+00 -0.00000000000E+00 -0.31589039803E+03  0.31589039803E+03  0.00000000000E+00 0.  1.
      99925    2    1    2    0    0 -0.25292006843E+02  0.29010616842E+02 -0.17256378522E+03  0.31704783697E+03  0.26317250893E+03 0.  0.
         25    1    1    2    0    0  0.25292006843E+02 -0.29010616842E+02 -0.10843646038E+02  0.13132552783E+03  0.12509000000E+03 0.  0.
         25    1    3    3    0    0 -0.29064197264E+02  0.16671670777E+02 -0.13199287135E+03  0.18491159606E+03  0.12509000000E+03 0.  0.
         25    1    3    3    0    0  0.37721904213E+01  0.12338946064E+02 -0.40570913868E+02  0.13213624091E+03  0.12509000000E+03 0.  0.
<mgrwt>
<rscale>  2 0.40914593E+03</rscale>
<asrwt>0</asrwt>
<pdfrwt beam="1">  1       21 0.19482790E-01 0.40914593E+03</pdfrwt>
<pdfrwt beam="2">  1       21 0.46454470E-01 0.40914593E+03</pdfrwt>
<totfact> 0.10118345E+05</totfact>
</mgrwt>
</event>
<event>
 6    0  0.1539497E-004  0.4098037E+03  0.7546771E-02  0.1040437E+00
         21   -1    0    0  502  501  0.00000000000E+00  0.00000000000E+00  0.16097010264E+04  0.16097010264E+04  0.00000000000E+00 0. -1.
         21   -1    0    0  501  502 -0.00000000000E+00 -0.00000000000E+00 -0.26082335640E+02  0.26082335640E+02  0.00000000000E+00 0. -1.
      99925    2    1    2    0    0 -0.39203812646E+02 -0.33778818411E+02  0.11807513015E+04  0.12107803163E+04  0.26293989947E+03 0.  0.
         25    1    3    3    0    0 -0.10255082962E+02 -0.55906442644E+02  0.57753273820E+03  0.59365163930E+03  0.12509000000E+03 0.  0.
         25    1    3    3    0    0 -0.28948729685E+02  0.22127624233E+02  0.60321856335E+03  0.61712867700E+03  0.12509000000E+03 0.  0.
         25    1    1    2    0    0  0.39203812646E+02  0.33778818411E+02  0.40286738926E+03  0.42500304578E+03  0.12509000000E+03 0.  0.
<mgrwt>
<rscale>  2 0.40980367E+03</rscale>
<asrwt>0</asrwt>
<pdfrwt beam="1">  1       21 0.23672067E+00 0.40980367E+03</pdfrwt>
<pdfrwt beam="2">  1       21 0.38356387E-02 0.40980367E+03</pdfrwt>
<totfact> 0.29795834E+04</totfact>
</mgrwt>
</event>
<event>
 6    0  0.1539497E-004  0.4876162E+03  0.7546771E-02  0.1017063E+00
         21   -1    0    0  502  501  0.00000000000E+00  0.00000000000E+00  0.58514337421E+02  0.58514337421E+02  0.00000000000E+00 0.  1.
         21   -1    0    0  501  502 -0.00000000000E+00 -0.00000000000E+00 -0.10158601710E+04  0.10158601710E+04  0.00000000000E+00 0.  1.
      99925    2    1    2    0    0 -0.59133502882E+02 -0.68246260694E+02 -0.82673485085E+03  0.87223331971E+03  0.26295651188E+03 0.  0.
         25    1    3    3    0    0 -0.27747304436E+02  0.75748611093E+01 -0.37194803764E+03  0.39347190780E+03  0.12509000000E+03 0.  0.
         25    1    1    2    0    0  0.59133502882E+02  0.68246260694E+02 -0.13061098272E+03  0.20214118870E+03  0.12509000000E+03 0.  0.
         25    1    3    3    0    0 -0.31386198446E+02 -0.75821121803E+02 -0.45478681321E+03  0.47876141191E+03  0.12509000000E+03 0.  0.
<mgrwt>
<rscale>  2 0.48761618E+03</rscale>
<asrwt>0</asrwt>
<pdfrwt beam="1">  1       21 0.86050506E-02 0.48761618E+03</pdfrwt>
<pdfrwt beam="2">  1       21 0.14939118E+00 0.48761618E+03</pdfrwt>
<totfact> 0.28437785E+04</totfact>
</mgrwt>
</event>
<event>
 6    0  0.1539497E-004  0.4061340E+03  0.7546771E-02  0.1041676E+00
         21   -1    0    0  502  501  0.00000000000E+00  0.00000000000E+00  0.24316630269E+04  0.24316630269E+04  0.00000000000E+00 0.  1.
         21   -1    0    0  501  502 -0.00000000000E+00 -0.00000000000E+00 -0.16958030715E+02  0.16958030715E+02  0.00000000000E+00 0.  1.
      99925    2    1    2    0    0 -0.45016300843E+02  0.75974154195E+01  0.14000037140E+04  0.14252196759E+04  0.26297630522E+03 0.  0.
         25    1    3    3    0    0 -0.33811411709E+02  0.41102701401E+02  0.65443529164E+03  0.66840534309E+03  0.12509000000E+03 0.  0.
         25    1    1    2    0    0  0.45016300843E+02 -0.75974154195E+01  0.10147012821E+04  0.10234013817E+04  0.12509000000E+03 0.  0.
         25    1    3    3    0    0 -0.11204889135E+02 -0.33505285981E+02  0.74556842237E+03  0.75681433276E+03  0.12509000000E+03 0.  0.
<mgrwt>
<rscale>  2 0.40613405E+03</rscale>
<asrwt>0</asrwt>
<pdfrwt beam="1">  1       21 0.35759726E+00 0.40613405E+03</pdfrwt>
<pdfrwt beam="2">  1       21 0.24938297E-02 0.40613405E+03</pdfrwt>
<totfact> 0.11439247E+04</totfact>
</mgrwt>
</event>
<event>
 6    0  0.1539497E-004  0.4476169E+03  0.7546771E-02  0.1028435E+00
         21   -1    0    0  502  501  0.00000000000E+00  0.00000000000E+00  0.14651212610E+03  0.14651212610E+03  0.00000000000E+00 0.  1.
         21   -1    0    0  501  502 -0.00000000000E+00 -0.00000000000E+00 -0.34188446376E+03  0.34188446376E+03  0.00000000000E+00 0.  1.
      99925    2    1    2    0    0 -0.75872496294E+02  0.22717498943E+02 -0.20088549079E+03  0.34023916207E+03  0.26293532768E+03 0.  0.
         25    1    3    3    0    0 -0.68789231914E+02  0.21312256253E+02 -0.13941558913E+03  0.20067482475E+03  0.12509000000E+03 0.  0.
         25    1    1    2    0    0  0.75872496294E+02 -0.22717498943E+02  0.55131531262E+01  0.14815742779E+03  0.12509000000E+03 0.  0.
         25    1    3    3    0    0 -0.70832643798E+01  0.14052426904E+01 -0.61469901657E+02  0.13956433732E+03  0.12509000000E+03 0.  0.
<mgrwt>
<rscale>  2 0.44761689E+03</rscale>
<asrwt>0</asrwt>
<pdfrwt beam="1">  1       21 0.21545901E-01 0.44761689E+03</pdfrwt>
<pdfrwt beam="2">  1       21 0.50277126E-01 0.44761689E+03</pdfrwt>
<totfact> 0.70114058E+04</totfact>
</mgrwt>
</event>
<event>
 6    0  0.1539497E-004  0.4226055E+03  0.7546771E-02  0.1036222E+00
         21   -1    0    0  502  501  0.00000000000E+00  0.00000000000E+00  0.40890333890E+02  0.40890333890E+02  0.00000000000E+00 0. -1.
         21   -1    0    0  501  502 -0.00000000000E+00 -0.00000000000E+00 -0.10919172275E+04  0.10919172275E+04  0.00000000000E+00 0. -1.
      99925    2    1    2    0    0 -0.39118762174E+02 -0.66082426357E+02 -0.73466069550E+03  0.78404941592E+03  0.26288777922E+03 0.  0.
         25    1    3    3    0    0 -0.45214165351E+02 -0.60457953990E+02 -0.44658003893E+03  0.46987309373E+03  0.12509000000E+03 0.  0.
         25    1    1    2    0    0  0.39118762174E+02  0.66082426357E+02 -0.31636619814E+03  0.34875814550E+03  0.12509000000E+03 0.  0.
         25    1    3    3    0    0  0.60954031771E+01 -0.56244723667E+01 -0.28808065657E+03  0.31417632218E+03  0.12509000000E+03 0.  0.
<mgrwt>
<rscale>  2 0.42260554E+03</rscale>
<asrwt>0</asrwt>
<pdfrwt beam="1">  1       21 0.60132851E-02 0.42260554E+03</pdfrwt>
<pdfrwt beam="2">  1       21 0.16057604E+00 0.42260554E+03</pdfrwt>
<totfact> 0.44604148E+04</totfact>
</mgrwt>
</event>
<event>
 6    0  0.1539497E-004  0.4102547E+03  0.7546771E-02  0.1040286E+00
         21   -1    0    0  502  501  0.00000000000E+00  0.00000000000E+00  0.26252933995E+02  0.26252933995E+02  0.00000000000E+00 0.  1.
         21   -1    0    0  501  502 -0.00000000000E+00 -0.00000000000E+00 -0.16027628483E+04  0.16027628483E+04  0.00000000000E+00 0.  1.
      99925    2    1    2    0    0 -0.37905141466E+02  0.52408592388E+02 -0.10440025786E+04  0.10782027187E+04  0.26152678307E+03 0.  0.
         25    1    3    3    0    0  0.30816120929E+00 -0.24514881579E+01 -0.56238576472E+03  0.57613484639E+03  0.12509000000E+03 0.  0.
         25    1    1    2    0    0  0.37905141466E+02 -0.52408592388E+02 -0.53250733572E+03  0.55081306357E+03  0.12509000000E+03 0.  0.
         25    1    3    3    0    0 -0.38213302675E+02  0.54860080545E+02 -0.48161681388E+03  0.50206787235E+03  0.12509000000E+03 0.  0.
<mgrwt>
<rscale>  2 0.41025469E+03</rscale>
<asrwt>0</asrwt>
<pdfrwt beam="1">  1       21 0.38607264E-02 0.41025469E+03</pdfrwt>
<pdfrwt beam="2">  1       21 0.23570037E+00 0.41025469E+03</pdfrwt>
<totfact> 0.29895916E+04</totfact>
</mgrwt>
</event>
<event>
 6    0  0.1539497E-004  0.4692083E+03  0.7546771E-02  0.1022144E+00
         21   -1    0    0  502  501  0.00000000000E+00  0.00000000000E+00  0.54306480791E+03  0.54306480791E+03  0.00000000000E+00 0.  1.
         21   -1    0    0  501  502 -0.00000000000E+00 -0.00000000000E+00 -0.10134907597E+03  0.10134907597E+03  0.00000000000E+00 0.  1.
      99925    2    1    2    0    0 -0.24730261053E+02  0.67452434410E+02  0.41677550042E+03  0.49802078306E+03  0.26298567621E+03 0.  0.
         25    1    3    3    0    0 -0.24633843872E+02  0.17629002072E+02  0.13963517909E+03  0.18990286811E+03  0.12509000000E+03 0.  0.
         25    1    3    3    0    0 -0.96417180749E-01  0.49823432338E+02  0.27714032133E+03  0.30811791495E+03  0.12509000000E+03 0.  0.
         25    1    1    2    0    0  0.24730261053E+02 -0.67452434410E+02  0.24940231515E+02  0.14639310082E+03  0.12509000000E+03 0.  0.
<mgrwt>
<rscale>  2 0.46920834E+03</rscale>
<asrwt>0</asrwt>
<pdfrwt beam="1">  1       21 0.79862470E-01 0.46920834E+03</pdfrwt>
<pdfrwt beam="2">  1       21 0.14904276E-01 0.46920834E+03</pdfrwt>
<totfact> 0.50159394E+04</totfact>
</mgrwt>
</event>
<event>
 6    0  0.1539497E-004  0.4023870E+03  0.7546771E-02  0.1042956E+00
         21   -1    0    0  502  501  0.00000000000E+00  0.00000000000E+00  0.11690956627E+03  0.11690956627E+03  0.00000000000E+00 0. -1.
         21   -1    0    0  501  502 -0.00000000000E+00 -0.00000000000E+00 -0.34624041753E+03  0.34624041753E+03  0.00000000000E+00 0. -1.
      99925    2    1    2    0    0  0.74766169509E+01  0.39374330077E+02 -0.18689084878E+03  0.32511049821E+03  0.26298746932E+03 0.  0.
         25    1    3    3    0    0  0.33475860706E+02  0.31548956296E+02 -0.12581353257E+03  0.18328263139E+03  0.12509000000E+03 0.  0.
         25    1    3    3    0    0 -0.25999243755E+02  0.78253737814E+01 -0.61077316211E+02  0.14182786682E+03  0.12509000000E+03 0.  0.
         25    1    1    2    0    0 -0.74766169509E+01 -0.39374330077E+02 -0.42440002484E+02  0.13803948559E+03  0.12509000000E+03 0.  0.
<mgrwt>
<rscale>  2 0.40238696E+03</rscale>
<asrwt>0</asrwt>
<pdfrwt beam="1">  1       21 0.17192584E-01 0.40238696E+03</pdfrwt>
<pdfrwt beam="2">  1       21 0.50917708E-01 0.40238696E+03</pdfrwt>
<totfact> 0.10562468E+05</totfact>
</mgrwt>
</event>
<event>
 6    0  0.1539497E-004  0.4375281E+03  0.7546771E-02  0.1031508E+00
         21   -1    0    0  502  501  0.00000000000E+00  0.00000000000E+00  0.20266650244E+03  0.20266650244E+03  0.00000000000E+00 0. -1.
         21   -1    0    0  501  502 -0.00000000000E+00 -0.00000000000E+00 -0.23614023197E+03  0.23614023197E+03  0.00000000000E+00 0. -1.
      99925    2    1    2    0    0 -0.25624736628E+02  0.74638777734E+01  0.70563345618E+02  0.27393236495E+03  0.26333897969E+03 0.  0.
         25    1    3    3    0    0  0.21102227115E+02 -0.41477016885E+01  0.57240906452E+02  0.13923554464E+03  0.12509000000E+03 0.  0.
         25    1    3    3    0    0 -0.46726963744E+02  0.11611579462E+02  0.13322439166E+02  0.13469682032E+03  0.12509000000E+03 0.  0.
         25    1    1    2    0    0  0.25624736628E+02 -0.74638777734E+01 -0.10403707515E+03  0.16487436946E+03  0.12509000000E+03 0.  0.
<mgrwt>
<rscale>  2 0.43752812E+03</rscale>
<asrwt>0</asrwt>
<pdfrwt beam="1">  1       21 0.29803898E-01 0.43752812E+03</pdfrwt>
<pdfrwt beam="2">  1       21 0.34726505E-01 0.43752812E+03</pdfrwt>
<totfact> 0.80383537E+04</totfact>
</mgrwt>
</event>
<event>
 6    0  0.1539497E-004  0.4057082E+03  0.7546771E-02  0.1041821E+00
         21   -1    0    0  502  501  0.00000000000E+00  0.00000000000E+00  0.95128445899E+03  0.95128445899E+03  0.00000000000E+00 0.  1.
         21   -1    0    0  501  502 -0.00000000000E+00 -0.00000000000E+00 -0.43257074977E+02  0.43257074977E+02  0.00000000000E+00 0.  1.
      99925    2    1    2    0    0 -0.25883022241E+02  0.11871335624E+02  0.71854393089E+03  0.76571333082E+03  0.26306019258E+03 0.  0.
         25    1    3    3    0    0 -0.29728917055E+02 -0.30811168022E+02  0.34614804359E+03  0.37053894906E+03  0.12509000000E+03 0.  0.
         25    1    1    2    0    0  0.25883022241E+02 -0.11871335624E+02  0.18948345312E+03  0.22882820315E+03  0.12509000000E+03 0.  0.
         25    1    3    3    0    0  0.38458948141E+01  0.42682503646E+02  0.37239588730E+03  0.39517438176E+03  0.12509000000E+03 0.  0.
<mgrwt>
<rscale>  2 0.40570819E+03</rscale>
<asrwt>0</asrwt>
<pdfrwt beam="1">  1       21 0.13989476E+00 0.40570819E+03</pdfrwt>
<pdfrwt beam="2">  1       21 0.63613352E-02 0.40570819E+03</pdfrwt>
<totfact> 0.59042020E+04</totfact>
</mgrwt>
</event>
<event>
 6    0  0.1539497E-004  0.4246819E+03  0.7546771E-02  0.1035553E+00
         21   -1    0    0  502  501  0.00000000000E+00  0.00000000000E+00  0.50475790163E+03  0.50475790163E+03  0.00000000000E+00 0. -1.
         21   -1    0    0  501  502 -0.00000000000E+00 -0.00000000000E+00 -0.89327333679E+02  0.89327333679E+02  0.00000000000E+00 0. -1.
      99925    2    1    2    0    0 -0.52487592560E+02  0.38123906640E+02  0.33766689640E+03  0.43314090846E+03  0.26340792325E+03 0.  0.
         25    1    3    3    0    0 -0.24432308995E+02  0.48276307257E+02  0.22021552733E+03  0.25897862101E+03  0.12509000000E+03 0.  0.
         25    1    3    3    0    0 -0.28055283564E+02 -0.10152400617E+02  0.11745136907E+03  0.17416228745E+03  0.12509000000E+03 0.  0.
         25    1    1    2    0    0  0.52487592560E+02 -0.38123906640E+02  0.77763671556E+02  0.16094432685E+03  0.12509000000E+03 0.  0.
<mgrwt>
<rscale>  2 0.42468189E+03</rscale>
<asrwt>0</asrwt>
<pdfrwt beam="1">  1       21 0.74229102E-01 0.42468189E+03</pdfrwt>
<pdfrwt beam="2">  1       21 0.13136373E-01 0.42468189E+03</pdfrwt>
<totfact> 0.75588656E+04</totfact>
</mgrwt>
</event>
<event>
 6    0  0.1539497E-004  0.4108699E+03  0.7546771E-02  0.1040079E+00
         21   -1    0    0  502  501  0.00000000000E+00  0.00000000000E+00  0.27564656478E+02  0.27564656478E+02  0.00000000000E+00 0. -1.
         21   -1    0    0  501  502 -0.00000000000E+00 -0.00000000000E+00 -0.15310736886E+04  0.15310736886E+04  0.00000000000E+00 0. -1.
      99925    2    1    2    0    0 -0.19903543161E+02  0.59273387085E+02 -0.94764411828E+03  0.98545181698E+03  0.26301411225E+03 0.  0.
         25    1    1    2    0    0  0.19903543161E+02 -0.59273387085E+02 -0.55586491385E+03  0.57318652810E+03  0.12509000000E+03 0.  0.
         25    1    3    3    0    0  0.28311599373E+02  0.24067144061E+02 -0.50688551891E+03  0.52341304097E+03  0.12509000000E+03 0.  0.
         25    1    3    3    0    0 -0.48215142534E+02  0.35206243024E+02 -0.44075859937E+03  0.46203877601E+03  0.12509000000E+03 0.  0.
<mgrwt>
<rscale>  2 0.41086991E+03</rscale>
<asrwt>0</asrwt>
<pdfrwt beam="1">  1       21 0.40536263E-02 0.41086991E+03</pdfrwt>
<pdfrwt beam="2">  1       21 0.22515788E+00 0.41086991E+03</pdfrwt>
<totfact> 0.32027272E+04</totfact>
</mgrwt>
</event>
<event>
 6    0  0.1539497E-004  0.4942580E+03  0.7546771E-02  0.1015289E+00
         21   -1    0    0  502  501  0.00000000000E+00  0.00000000000E+00  0.11677318102E+03  0.11677318102E+03  0.00000000000E+00 0. -1.
         21   -1    0    0  501  502 -0.00000000000E+00 -0.00000000000E+00 -0.52300305810E+03  0.52300305810E+03  0.00000000000E+00 0. -1.
      99925    2    1    2    0    0 -0.10032782458E+03  0.83822485957E+02 -0.33520090397E+03  0.44539387197E+03  0.26253413803E+03 0.  0.
         25    1    1    2    0    0  0.10032782458E+03 -0.83822485957E+02 -0.71028973109E+02  0.19438236715E+03  0.12509000000E+03 0.  0.
         25    1    3    3    0    0 -0.82834708246E+02  0.19207414689E+02 -0.16572835457E+03  0.22437448446E+03  0.12509000000E+03 0.  0.
         25    1    3    3    0    0 -0.17493116332E+02  0.64615071268E+02 -0.16947254940E+03  0.22101938751E+03  0.12509000000E+03 0.  0.
<mgrwt>
<rscale>  2 0.49425795E+03</rscale>
<asrwt>0</asrwt>
<pdfrwt beam="1">  1       21 0.17172527E-01 0.49425795E+03</pdfrwt>
<pdfrwt beam="2">  1       21 0.76912215E-01 0.49425795E+03</pdfrwt>
<totfact> 0.41766127E+04</totfact>
</mgrwt>
</event>
<event>
 6    0  0.1539497E-004  0.4001484E+03  0.7546771E-02  0.1043728E+00
         21   -1    0    0  502  501  0.00000000000E+00  0.00000000000E+00  0.45654608424E+03  0.45654608424E+03  0.00000000000E+00 0. -1.
         21   -1    0    0  501  502 -0.00000000000E+00 -0.00000000000E+00 -0.87679399218E+02  0.87679399218E+02  0.00000000000E+00 0. -1.
      99925    2    1    2    0    0 -0.13527817383E+02  0.43813289386E+02  0.25498022077E+03  0.36895357752E+03  0.26269606623E+03 0.  0.
         25    1    1    2    0    0  0.13527817383E+02 -0.43813289386E+02  0.11388646426E+03  0.17527190594E+03  0.12509000000E+03 0.  0.
         25    1    3    3    0    0  0.12120114811E+02  0.35562705631E+02  0.17383646880E+03  0.21743557483E+03  0.12509000000E+03 0.  0.
         25    1    3    3    0    0 -0.25647932193E+02  0.82505837553E+01  0.81143751966E+02  0.15151800270E+03  0.12509000000E+03 0.  0.
<mgrwt>
<rscale>  2 0.40014840E+03</rscale>
<asrwt>0</asrwt>
<pdfrwt beam="1">  1       21 0.67139129E-01 0.40014840E+03</pdfrwt>
<pdfrwt beam="2">  1       21 0.12894029E-01 0.40014840E+03</pdfrwt>
<totfact> 0.98553812E+04</totfact>
</mgrwt>
</event>
<event>
 6    0  0.1539497E-004  0.4118805E+03  0.7546771E-02  0.1039742E+00
         21   -1    0    0  502  501  0.00000000000E+00  0.00000000000E+00  0.30250014143E+03  0.30250014143E+03  0.00000000000E+00 0.  1.
         21   -1    0    0  501  502 -0.00000000000E+00 -0.00000000000E+00 -0.14020285983E+03  0.14020285983E+03  0.00000000000E+00 0.  1.
      99925    2    1    2    0    0  0.18674863216E+02  0.53911817182E+02  0.73047410053E+02  0.27878752847E+03  0.26292836927E+03 0.  0.
         25    1    1    2    0    0 -0.18674863216E+02 -0.53911817182E+02  0.89249871543E+02  0.16391547279E+03  0.12509000000E+03 0.  0.
         25    1    3    3    0    0 -0.68221743890E+00 -0.10121516042E+02  0.18732902468E+02  0.12689105659E+03  0.12509000000E+03 0.  0.
         25    1    3    3    0    0  0.19357080655E+02  0.64033333224E+02  0.54314507585E+02  0.15189647188E+03  0.12509000000E+03 0.  0.
<mgrwt>
<rscale>  2 0.41188049E+03</rscale>
<asrwt>0</asrwt>
<pdfrwt beam="1">  1       21 0.44485315E-01 0.41188049E+03</pdfrwt>
<pdfrwt beam="2">  1       21 0.20618068E-01 0.41188049E+03</pdfrwt>
<totfact> 0.99428463E+04</totfact>
</mgrwt>
</event>
<event>
 6    0  0.1539497E-004  0.4714862E+03  0.7546771E-02  0.1021502E+00
         21   -1    0    0  502  501  0.00000000000E+00  0.00000000000E+00  0.46364174604E+03  0.46364174604E+03  0.00000000000E+00 0.  1.
         21   -1    0    0  501  502 -0.00000000000E+00 -0.00000000000E+00 -0.11986586708E+03  0.11986586708E+03  0.00000000000E+00 0.  1.
      99925    2    1    2    0    0 -0.46261264320E+02  0.11407373019E+03  0.16989752987E+03  0.33645679066E+03  0.26303057014E+03 0.  0.
         25    1    1    2    0    0  0.46261264320E+02 -0.11407373019E+03  0.17387834909E+03  0.24705082246E+03  0.12509000000E+03 0.  0.
         25    1    3    3    0    0 -0.60528239900E+02  0.70686797342E+02  0.10762333528E+03  0.18944809722E+03  0.12509000000E+03 0.  0.
         25    1    3    3    0    0  0.14266975580E+02  0.43386932852E+02  0.62274194586E+02  0.14700869344E+03  0.12509000000E+03 0.  0.
<mgrwt>
<rscale>  2 0.47148625E+03</rscale>
<asrwt>0</asrwt>
<pdfrwt beam="1">  1       21 0.68182609E-01 0.47148625E+03</pdfrwt>
<pdfrwt beam="2">  1       21 0.17627334E-01 0.47148625E+03</pdfrwt>
<totfact> 0.52518227E+04</totfact>
</mgrwt>
</event>
<event>
 6    0  0.1539497E-004  0.4344082E+03  0.7546771E-02  0.1032476E+00
         21   -1    0    0  502  501  0.00000000000E+00  0.00000000000E+00  0.23331557181E+03  0.23331557181E+03  0.00000000000E+00 0.  1.
         21   -1    0    0  501  502 -0.00000000000E+00 -0.00000000000E+00 -0.20220519291E+03  0.20220519291E+03  0.00000000000E+00 0.  1.
      99925    2    1    2    0    0 -0.48539768439E+02  0.17092064203E+02  0.97100084067E+02  0.28502027613E+03  0.26298266807E+03 0.  0.
         25    1    3    3    0    0  0.14398800218E+02 -0.59336550541E+01  0.45015839263E+02  0.13385240975E+03  0.12509000000E+03 0.  0.
         25    1    1    2    0    0  0.48539768439E+02 -0.17092064203E+02 -0.65989705163E+02  0.15050048859E+03  0.12509000000E+03 0.  0.
         25    1    3    3    0    0 -0.62938568657E+02  0.23025719257E+02  0.52084244804E+02  0.15116786639E+03  0.12509000000E+03 0.  0.
<mgrwt>
<rscale>  2 0.43440820E+03</rscale>
<asrwt>0</asrwt>
<pdfrwt beam="1">  1       21 0.34311114E-01 0.43440820E+03</pdfrwt>
<pdfrwt beam="2">  1       21 0.29736058E-01 0.43440820E+03</pdfrwt>
<totfact> 0.82785006E+04</totfact>
</mgrwt>
</event>
<event>
 6    0  0.1539497E-004  0.4136260E+03  0.7546771E-02  0.1039161E+00
         21   -1    0    0  502  501  0.00000000000E+00  0.00000000000E+00  0.88661193382E+02  0.88661193382E+02  0.00000000000E+00 0.  1.
         21   -1    0    0  501  502 -0.00000000000E+00 -0.00000000000E+00 -0.48241635249E+03  0.48241635249E+03  0.00000000000E+00 0.  1.
      99925    2    1    2    0    0  0.27934262022E+02 -0.49140268377E+02 -0.20743024163E+03  0.33964813559E+03  0.26294193636E+03 0.  0.
         25    1    3    3    0    0  0.53128091373E+02 -0.14167548486E+02 -0.10549633371E+03  0.17262762829E+03  0.12509000000E+03 0.  0.
         25    1    3    3    0    0 -0.25193829352E+02 -0.34972719891E+02 -0.10193390792E+03  0.16702050729E+03  0.12509000000E+03 0.  0.
         25    1    1    2    0    0 -0.27934262022E+02  0.49140268377E+02 -0.18632491748E+03  0.23142941029E+03  0.12509000000E+03 0.  0.
<mgrwt>
<rscale>  2 0.41362596E+03</rscale>
<asrwt>0</asrwt>
<pdfrwt beam="1">  1       21 0.13038410E-01 0.41362596E+03</pdfrwt>
<pdfrwt beam="2">  1       21 0.70943583E-01 0.41362596E+03</pdfrwt>
<totfact> 0.85100993E+04</totfact>
</mgrwt>
</event>
<event>
 6    0  0.1539497E-004  0.4130861E+03  0.7546771E-02  0.1039340E+00
         21   -1    0    0  502  501  0.00000000000E+00  0.00000000000E+00  0.13659871266E+03  0.13659871266E+03  0.00000000000E+00 0.  1.
         21   -1    0    0  501  502 -0.00000000000E+00 -0.00000000000E+00 -0.31230187726E+03  0.31230187726E+03  0.00000000000E+00 0.  1.
      99925    2    1    2    0    0  0.61318778160E+02  0.23405456032E+02 -0.13060132443E+03  0.30061204682E+03  0.26268439014E+03 0.  0.
         25    1    3    3    0    0  0.17710321508E+02  0.29208935867E+02 -0.10195647240E+03  0.16495286535E+03  0.12509000000E+03 0.  0.
         25    1    1    2    0    0 -0.61318778160E+02 -0.23405456032E+02 -0.45101840172E+02  0.14828854310E+03  0.12509000000E+03 0.  0.
         25    1    3    3    0    0  0.43608456652E+02 -0.58034798351E+01 -0.28644852026E+02  0.13565918147E+03  0.12509000000E+03 0.  0.
<mgrwt>
<rscale>  2 0.41308611E+03</rscale>
<asrwt>0</asrwt>
<pdfrwt beam="1">  1       21 0.20088046E-01 0.41308611E+03</pdfrwt>
<pdfrwt beam="2">  1       21 0.45926746E-01 0.41308611E+03</pdfrwt>
<totfact> 0.97714135E+04</totfact>
</mgrwt>
</event>
<event>
 6    0  0.1539497E-004  0.4572500E+03  0.7546771E-02  0.1025582E+00
         21   -1    0    0  502  501  0.00000000000E+00  0.00000000000E+00  0.40398238755E+03  0.40398238755E+03  0.00000000000E+00 0.  1.
         21   -1    0    0  501  502 -0.00000000000E+00 -0.00000000000E+00 -0.12938530093E+03  0.12938530093E+03  0.00000000000E+00 0.  1.
      99925    2    1    2    0    0  0.67866235374E+02  0.65767242307E+02  0.24948501191E+03  0.37459338180E+03  0.26295679199E+03 0.  0.
         25    1    1    2    0    0 -0.67866235374E+02 -0.65767242307E+02  0.25112074703E+02  0.15877430668E+03  0.12509000000E+03 0.  0.
         25    1    3    3    0    0  0.21197711414E+02  0.61120021848E+02  0.92644050129E+02  0.16856876390E+03  0.12509000000E+03 0.  0.
         25    1    3    3    0    0  0.46668523960E+02  0.46472204588E+01  0.15684096179E+03  0.20602461790E+03  0.12509000000E+03 0.  0.
<mgrwt>
<rscale>  2 0.45724997E+03</rscale>
<asrwt>0</asrwt>
<pdfrwt beam="1">  1       21 0.59409175E-01 0.45724997E+03</pdfrwt>
<pdfrwt beam="2">  1       21 0.19027250E-01 0.45724997E+03</pdfrwt>
<totfact> 0.61868470E+04</totfact>
</mgrwt>
</event>
<event>
 6    0  0.1539497E-004  0.4269996E+03  0.7546771E-02  0.1034812E+00
         21   -1    0    0  502  501  0.00000000000E+00  0.00000000000E+00  0.15680208653E+03  0.15680208653E+03  0.00000000000E+00 0.  1.
         21   -1    0    0  501  502 -0.00000000000E+00 -0.00000000000E+00 -0.29069867291E+03  0.29069867291E+03  0.00000000000E+00 0.  1.
      99925    2    1    2    0    0  0.28811068666E+01 -0.16874203743E+02  0.11684776938E-01  0.26345736044E+03  0.26290062972E+03 0.  0.
         25    1    3    3    0    0 -0.15264240326E+02 -0.23524003342E+02  0.33556235002E+02  0.13251379088E+03  0.12509000000E+03 0.  0.
         25    1    1    2    0    0 -0.28811068666E+01  0.16874203743E+02 -0.13390827116E+03  0.18404339899E+03  0.12509000000E+03 0.  0.
         25    1    3    3    0    0  0.18145347193E+02  0.66497995988E+01 -0.33544550225E+02  0.13094356956E+03  0.12509000000E+03 0.  0.
<mgrwt>
<rscale>  2 0.42699957E+03</rscale>
<asrwt>0</asrwt>
<pdfrwt beam="1">  1       21 0.23059130E-01 0.42699957E+03</pdfrwt>
<pdfrwt beam="2">  1       21 0.42749805E-01 0.42699957E+03</pdfrwt>
<totfact> 0.86904784E+04</totfact>
</mgrwt>
</event>
<event>
 6    0  0.1539497E-004  0.3946202E+03  0.7546771E-02  0.1045659E+00
         21   -1    0    0  502  501  0.00000000000E+00  0.00000000000E+00  0.54917853718E+03  0.54917853718E+03  0.00000000000E+00 0. -1.
         21   -1    0    0  501  502 -0.00000000000E+00 -0.00000000000E+00 -0.70890007975E+02  0.70890007975E+02  0.00000000000E+00 0. -1.
      99925    2    1    2    0    0 -0.24019742895E+01  0.20247020694E+02  0.27804565710E+03  0.38308663180E+03  0.26273611991E+03 0.  0.
         25    1    3    3    0    0 -0.30058898131E+02  0.73817847284E+01  0.17941037319E+03  0.22089277537E+03  0.12509000000E+03 0.  0.
         25    1    1    2    0    0  0.24019742895E+01 -0.20247020694E+02  0.20024287211E+03  0.23698191335E+03  0.12509000000E+03 0.  0.
         25    1    3    3    0    0  0.27656923842E+02  0.12865235966E+02  0.98635283916E+02  0.16219385644E+03  0.12509000000E+03 0.  0.
<mgrwt>
<rscale>  2 0.39462018E+03</rscale>
<asrwt>0</asrwt>
<pdfrwt beam="1">  1       21 0.80761547E-01 0.39462018E+03</pdfrwt>
<pdfrwt beam="2">  1       21 0.10425001E-01 0.39462018E+03</pdfrwt>
<totfact> 0.95432777E+04</totfact>
</mgrwt>
</event>
<event>
 6    0  0.1539497E-004  0.4498582E+03  0.7546771E-02  0.1027764E+00
         21   -1    0    0  502  501  0.00000000000E+00  0.00000000000E+00  0.15144480252E+03  0.15144480252E+03  0.00000000000E+00 0.  1.
         21   -1    0    0  501  502 -0.00000000000E+00 -0.00000000000E+00 -0.33406957922E+03  0.33406957922E+03  0.00000000000E+00 0.  1.
      99925    2    1    2    0    0  0.36209817336E+02 -0.19211070832E+01 -0.22551822605E+03  0.34839327606E+03  0.26306760158E+03 0.  0.
         25    1    3    3    0    0  0.49211086960E+02 -0.95033539966E+01 -0.83442877336E+02  0.15850005267E+03  0.12509000000E+03 0.  0.
         25    1    1    2    0    0 -0.36209817336E+02  0.19211070832E+01  0.42893449347E+02  0.13712110567E+03  0.12509000000E+03 0.  0.
         25    1    3    3    0    0 -0.13001269624E+02  0.75822469135E+01 -0.14207534871E+03  0.18989322340E+03  0.12509000000E+03 0.  0.
<mgrwt>
<rscale>  2 0.44985821E+03</rscale>
<asrwt>0</asrwt>
<pdfrwt beam="1">  1       21 0.22271295E-01 0.44985821E+03</pdfrwt>
<pdfrwt beam="2">  1       21 0.49127878E-01 0.44985821E+03</pdfrwt>
<totfact> 0.69077735E+04</totfact>
</mgrwt>
</event>
<event>
 6    0  0.1539497E-004  0.8249533E+03  0.7546771E-02  0.9524584E-01
         21   -1    0    0  502  501  0.00000000000E+00  0.00000000000E+00  0.80404226773E+03  0.80404226773E+03  0.00000000000E+00 0.  1.
         21   -1    0    0  501  502 -0.00000000000E+00 -0.00000000000E+00 -0.21160202604E+03  0.21160202604E+03  0.00000000000E+00 0.  1.
      99925    2    1    2    0    0  0.33958734625E+03  0.89614302028E+02  0.22885321296E+03  0.49488204050E+03  0.26302880465E+03 0.  0.
         25    1    1    2    0    0 -0.33958734625E+03 -0.89614302028E+02  0.36358702873E+03  0.52076225326E+03  0.12509000000E+03 0.  0.
         25    1    3    3    0    0  0.13246002973E+03  0.56947414318E+02  0.13265062539E+03  0.23244862656E+03  0.12509000000E+03 0.  0.
         25    1    3    3    0    0  0.20712731651E+03  0.32666887709E+02  0.96202587574E+02  0.26243341394E+03  0.12509000000E+03 0.  0.
<mgrwt>
<rscale>  2 0.82495327E+03</rscale>
<asrwt>0</asrwt>
<pdfrwt beam="1">  1       21 0.11824151E+00 0.82495327E+03</pdfrwt>
<pdfrwt beam="2">  1       21 0.31117945E-01 0.82495327E+03</pdfrwt>
<totfact> 0.43401488E+03</totfact>
</mgrwt>
</event>
<event>
 6    0  0.1539497E-004  0.4306131E+03  0.7546771E-02  0.1033666E+00
         21   -1    0    0  502  501  0.00000000000E+00  0.00000000000E+00  0.29407561253E+03  0.29407561253E+03  0.00000000000E+00 0.  1.
         21   -1    0    0  501  502 -0.00000000000E+00 -0.00000000000E+00 -0.15763602246E+03  0.15763602246E+03  0.00000000000E+00 0.  1.
      99925    2    1    2    0    0  0.96894236702E+01  0.68768208919E+02  0.30647305012E+02  0.27377213075E+03  0.26303796453E+03 0.  0.
         25    1    1    2    0    0 -0.96894236702E+01 -0.68768208919E+02  0.10579228506E+03  0.17793950423E+03  0.12509000000E+03 0.  0.
         25    1    3    3    0    0 -0.22464404420E+01  0.43039892089E+02 -0.23798730099E+02  0.13442978264E+03  0.12509000000E+03 0.  0.
         25    1    3    3    0    0  0.11935864112E+02  0.25728316830E+02  0.54446035111E+02  0.13934234812E+03  0.12509000000E+03 0.  0.
<mgrwt>
<rscale>  2 0.43061310E+03</rscale>
<asrwt>0</asrwt>
<pdfrwt beam="1">  1       21 0.43246414E-01 0.43061310E+03</pdfrwt>
<pdfrwt beam="2">  1       21 0.23181768E-01 0.43061310E+03</pdfrwt>
<totfact> 0.83918360E+04</totfact>
</mgrwt>
</event>
<event>
 6    0  0.1539497E-004  0.4310380E+03  0.7546771E-02  0.1033533E+00
         21   -1    0    0  502  501  0.00000000000E+00  0.00000000000E+00  0.54798978018E+02  0.54798978018E+02  0.00000000000E+00 0.  1.
         21   -1    0    0  501  502 -0.00000000000E+00 -0.00000000000E+00 -0.84761510273E+03  0.84761510273E+03  0.00000000000E+00 0.  1.
      99925    2    1    2    0    0 -0.13384574136E+02 -0.67890982811E+02 -0.62735261096E+03  0.68374992078E+03  0.26297209608E+03 0.  0.
         25    1    3    3    0    0  0.20578399612E+02 -0.32235223753E+01 -0.27805628785E+03  0.30560868597E+03  0.12509000000E+03 0.  0.
         25    1    3    3    0    0 -0.33962973748E+02 -0.64667460436E+02 -0.34929632311E+03  0.37814123481E+03  0.12509000000E+03 0.  0.
         25    1    1    2    0    0  0.13384574136E+02  0.67890982811E+02 -0.16546351375E+03  0.21866415997E+03  0.12509000000E+03 0.  0.
<mgrwt>
<rscale>  2 0.43103801E+03</rscale>
<asrwt>0</asrwt>
<pdfrwt beam="1">  1       21 0.80586743E-02 0.43103801E+03</pdfrwt>
<pdfrwt beam="2">  1       21 0.12464926E+00 0.43103801E+03</pdfrwt>
<totfact> 0.52261391E+04</totfact>
</mgrwt>
</event>
<event>
 6    0  0.1539497E-004  0.3954512E+03  0.7546771E-02  0.1045366E+00
         21   -1    0    0  502  501  0.00000000000E+00  0.00000000000E+00  0.39520012374E+03  0.39520012374E+03  0.00000000000E+00 0.  1.
         21   -1    0    0  501  502 -0.00000000000E+00 -0.00000000000E+00 -0.98925589070E+02  0.98925589070E+02  0.00000000000E+00 0.  1.
      99925    2    1    2    0    0  0.87024526454E+01 -0.22978661455E+02  0.16757552194E+03  0.31297744331E+03  0.26319113379E+03 0.  0.
         25    1    3    3    0    0  0.16231473112E+02 -0.38457700831E+02  0.51846415300E+02  0.14169691017E+03  0.12509000000E+03 0.  0.
         25    1    3    3    0    0 -0.75290204662E+01  0.15479039375E+02  0.11572910664E+03  0.17128053314E+03  0.12509000000E+03 0.  0.
         25    1    1    2    0    0 -0.87024526454E+01  0.22978661455E+02  0.12869901273E+03  0.18114826950E+03  0.12509000000E+03 0.  0.
<mgrwt>
<rscale>  2 0.39545116E+03</rscale>
<asrwt>0</asrwt>
<pdfrwt beam="1">  1       21 0.58117665E-01 0.39545116E+03</pdfrwt>
<pdfrwt beam="2">  1       21 0.14547881E-01 0.39545116E+03</pdfrwt>
<totfact> 0.10857823E+05</totfact>
</mgrwt>
</event>
<event>
 6    0  0.1539497E-004  0.4843567E+03  0.7546771E-02  0.1017945E+00
         21   -1    0    0  502  501  0.00000000000E+00  0.00000000000E+00  0.15289241622E+04  0.15289241622E+04  0.00000000000E+00 0. -1.
         21   -1    0    0  501  502 -0.00000000000E+00 -0.00000000000E+00 -0.38360534748E+02  0.38360534748E+02  0.00000000000E+00 0. -1.
      99925    2    1    2    0    0 -0.13806085570E+03 -0.37711095407E+01  0.87008517425E+03  0.91942974394E+03  0.26311180599E+03 0.  0.
         25    1    3    3    0    0 -0.52973019183E+02 -0.39880699138E+02  0.40661898777E+03  0.43056140124E+03  0.12509000000E+03 0.  0.
         25    1    1    2    0    0  0.13806085570E+03  0.37711095407E+01  0.62047845318E+03  0.64785495298E+03  0.12509000000E+03 0.  0.
         25    1    3    3    0    0 -0.85087836519E+02  0.36109589597E+02  0.46346618648E+03  0.48886834270E+03  0.12509000000E+03 0.  0.
<mgrwt>
<rscale>  2 0.48435668E+03</rscale>
<asrwt>0</asrwt>
<pdfrwt beam="1">  1       21 0.22484175E+00 0.48435668E+03</pdfrwt>
<pdfrwt beam="2">  1       21 0.56412561E-02 0.48435668E+03</pdfrwt>
<totfact> 0.17768013E+04</totfact>
</mgrwt>
</event>
<event>
 6    0  0.1539497E-004  0.6116400E+03  0.7546771E-02  0.9881547E-01
         21   -1    0    0  502  501  0.00000000000E+00  0.00000000000E+00  0.25566998935E+03  0.25566998935E+03  0.00000000000E+00 0. -1.
         21   -1    0    0  501  502 -0.00000000000E+00 -0.00000000000E+00 -0.36580699366E+03  0.36580699366E+03  0.00000000000E+00 0. -1.
      99925    2    1    2    0    0 -0.22510048960E+03 -0.36195947103E+02 -0.31145226001E+02  0.34969106331E+03  0.26331243353E+03 0.  0.
         25    1    3    3    0    0 -0.13921724228E+03 -0.28512562773E+02  0.17594223828E+02  0.19013540332E+03  0.12509000000E+03 0.  0.
         25    1    3    3    0    0 -0.85883247323E+02 -0.76833843303E+01 -0.48739449829E+02  0.15955565999E+03  0.12509000000E+03 0.  0.
         25    1    1    2    0    0  0.22510048960E+03  0.36195947103E+02 -0.78991778301E+02  0.27178591970E+03  0.12509000000E+03 0.  0.
<mgrwt>
<rscale>  2 0.61163999E+03</rscale>
<asrwt>0</asrwt>
<pdfrwt beam="1">  1       21 0.37598528E-01 0.61163999E+03</pdfrwt>
<pdfrwt beam="2">  1       21 0.53795146E-01 0.61163999E+03</pdfrwt>
<totfact> 0.19471192E+04</totfact>
</mgrwt>
</event>
<event>
 6    0  0.1539497E-004  0.5009966E+03  0.7546771E-02  0.1013519E+00
         21   -1    0    0  502  501  0.00000000000E+00  0.00000000000E+00  0.94188271989E+03  0.94188271989E+03  0.00000000000E+00 0.  1.
         21   -1    0    0  501  502 -0.00000000000E+00 -0.00000000000E+00 -0.66621255666E+02  0.66621255666E+02  0.00000000000E+00 0.  1.
      99925    2    1    2    0    0  0.52577586813E+01  0.54807945918E+02  0.81677402811E+03  0.85984381531E+03  0.26302094738E+03 0.  0.
         25    1    3    3    0    0  0.37367406374E+02  0.31492025969E+02  0.34692106646E+03  0.37200780262E+03  0.12509000000E+03 0.  0.
         25    1    3    3    0    0 -0.32109647692E+02  0.23315919949E+02  0.46985296165E+03  0.48783601268E+03  0.12509000000E+03 0.  0.
         25    1    1    2    0    0 -0.52577586813E+01 -0.54807945918E+02  0.58487436110E+02  0.14866016025E+03  0.12509000000E+03 0.  0.
<mgrwt>
<rscale>  2 0.50099664E+03</rscale>
<asrwt>0</asrwt>
<pdfrwt beam="1">  1       21 0.13851216E+00 0.50099664E+03</pdfrwt>
<pdfrwt beam="2">  1       21 0.97972440E-02 0.50099664E+03</pdfrwt>
<totfact> 0.27532444E+04</totfact>
</mgrwt>
</event>
<event>
 6    0  0.1539497E-004  0.4825496E+03  0.7546771E-02  0.1018437E+00
         21   -1    0    0  502  501  0.00000000000E+00  0.00000000000E+00  0.11329330562E+03  0.11329330562E+03  0.00000000000E+00 0. -1.
         21   -1    0    0  501  502 -0.00000000000E+00 -0.00000000000E+00 -0.51383017513E+03  0.51383017513E+03  0.00000000000E+00 0. -1.
      99925    2    1    2    0    0 -0.52435957690E+02 -0.60979709032E+02 -0.10153636842E+03  0.29318207522E+03  0.26301718679E+03 0.  0.
         25    1    1    2    0    0  0.52435957690E+02  0.60979709032E+02 -0.29900050109E+03  0.33394140553E+03  0.12509000000E+03 0.  0.
         25    1    3    3    0    0 -0.67254172548E+02 -0.33819531571E+02 -0.59285367860E+02  0.15757267334E+03  0.12509000000E+03 0.  0.
         25    1    3    3    0    0  0.14818214858E+02 -0.27160177462E+02 -0.42251000558E+02  0.13560940188E+03  0.12509000000E+03 0.  0.
<mgrwt>
<rscale>  2 0.48254956E+03</rscale>
<asrwt>0</asrwt>
<pdfrwt beam="1">  1       21 0.16660781E-01 0.48254956E+03</pdfrwt>
<pdfrwt beam="2">  1       21 0.75563260E-01 0.48254956E+03</pdfrwt>
<totfact> 0.46149917E+04</totfact>
</mgrwt>
</event>
<event>
 6    0  0.1539497E-004  0.4393013E+03  0.7546771E-02  0.1030961E+00
         21   -1    0    0  502  501  0.00000000000E+00  0.00000000000E+00  0.18058665610E+03  0.18058665610E+03  0.00000000000E+00 0. -1.
         21   -1    0    0  501  502 -0.00000000000E+00 -0.00000000000E+00 -0.26716485209E+03  0.26716485209E+03  0.00000000000E+00 0. -1.
      99925    2    1    2    0    0 -0.94298241419E+02 -0.99994682431E+01 -0.80204575610E+02  0.29065192564E+03  0.26278055528E+03 0.  0.
         25    1    3    3    0    0 -0.62641402482E+02  0.27312980093E+02 -0.60689959829E+02  0.15492166895E+03  0.12509000000E+03 0.  0.
         25    1    3    3    0    0 -0.31656838938E+02 -0.37312448336E+02 -0.19514615781E+02  0.13573025669E+03  0.12509000000E+03 0.  0.
         25    1    1    2    0    0  0.94298241419E+02  0.99994682431E+01 -0.63736203746E+01  0.15709958255E+03  0.12509000000E+03 0.  0.
<mgrwt>
<rscale>  2 0.43930130E+03</rscale>
<asrwt>0</asrwt>
<pdfrwt beam="1">  1       21 0.26556861E-01 0.43930130E+03</pdfrwt>
<pdfrwt beam="2">  1       21 0.39288948E-01 0.43930130E+03</pdfrwt>
<totfact> 0.78449270E+04</totfact>
</mgrwt>
</event>
<event>
 6    0  0.1539497E-004  0.4329193E+03  0.7546771E-02  0.1032942E+00
         21   -1    0    0  502  501  0.00000000000E+00  0.00000000000E+00  0.29580105772E+03  0.29580105772E+03  0.00000000000E+00 0.  1.
         21   -1    0    0  501  502 -0.00000000000E+00 -0.00000000000E+00 -0.15839965159E+03  0.15839965159E+03  0.00000000000E+00 0.  1.
      99925    2    1    2    0    0 -0.80450766165E+02 -0.40757908740E+02  0.99918372072E+02  0.29549967325E+03  0.26306433227E+03 0.  0.
         25    1    3    3    0    0 -0.20742552120E+02  0.30096207060E+01  0.76921019058E+02  0.14833631571E+03  0.12509000000E+03 0.  0.
         25    1    3    3    0    0 -0.59708214046E+02 -0.43767529446E+02  0.22997353013E+02  0.14716335755E+03  0.12509000000E+03 0.  0.
         25    1    1    2    0    0  0.80450766165E+02  0.40757908740E+02  0.37483034064E+02  0.15870103605E+03  0.12509000000E+03 0.  0.
<mgrwt>
<rscale>  2 0.43291932E+03</rscale>
<asrwt>0</asrwt>
<pdfrwt beam="1">  1       21 0.43500156E-01 0.43291932E+03</pdfrwt>
<pdfrwt beam="2">  1       21 0.23294066E-01 0.43291932E+03</pdfrwt>
<totfact> 0.82094870E+04</totfact>
</mgrwt>
</event>
<event>
 6    0  0.1539497E-004  0.3918293E+03  0.7546771E-02  0.1046646E+00
         21   -1    0    0  502  501  0.00000000000E+00  0.00000000000E+00  0.11737315862E+04  0.11737315862E+04  0.00000000000E+00 0.  1.
         21   -1    0    0  501  502 -0.00000000000E+00 -0.00000000000E+00 -0.32701301637E+02  0.32701301637E+02  0.00000000000E+00 0.  1.
      99925    2    1    2    0    0 -0.92358803691E+01  0.12186068218E+02  0.70118218994E+03  0.74888763741E+03  0.26256890188E+03 0.  0.
         25    1    1    2    0    0  0.92358803691E+01 -0.12186068218E+02  0.43984809465E+03  0.45754525045E+03  0.12509000000E+03 0.  0.
         25    1    3    3    0    0 -0.35343615013E+02  0.30419838977E+02  0.37798908755E+03  0.40087129622E+03  0.12509000000E+03 0.  0.
         25    1    3    3    0    0  0.26107734644E+02 -0.18233770758E+02  0.32319310239E+03  0.34801634119E+03  0.12509000000E+03 0.  0.
<mgrwt>
<rscale>  2 0.39182930E+03</rscale>
<asrwt>0</asrwt>
<pdfrwt beam="1">  1       21 0.17260756E+00 0.39182930E+03</pdfrwt>
<pdfrwt beam="2">  1       21 0.48090157E-02 0.39182930E+03</pdfrwt>
<totfact> 0.54039310E+04</totfact>
</mgrwt>
</event>
<event>
 6    0  0.1539497E-004  0.3923797E+03  0.7546771E-02  0.1046451E+00
         21   -1    0    0  502  501  0.00000000000E+00  0.00000000000E+00  0.30519446985E+02  0.30519446985E+02  0.00000000000E+00 0.  1.
         21   -1    0    0  501  502 -0.00000000000E+00 -0.00000000000E+00 -0.12611778386E+04  0.12611778386E+04  0.00000000000E+00 0.  1.
      99925    2    1    2    0    0 -0.88229727457E+00  0.26395154528E+02 -0.81069797487E+03  0.85270782972E+03  0.26302462579E+03 0.  0.
         25    1    3    3    0    0  0.62510130001E+01  0.45852049538E+02 -0.49074828833E+03  0.50854977752E+03  0.12509000000E+03 0.  0.
         25    1    1    2    0    0  0.88229727457E+00 -0.26395154528E+02 -0.41996041674E+03  0.43898945586E+03  0.12509000000E+03 0.  0.
         25    1    3    3    0    0 -0.71333102747E+01 -0.19456895010E+02 -0.31994968654E+03  0.34415805220E+03  0.12509000000E+03 0.  0.
<mgrwt>
<rscale>  2 0.39237966E+03</rscale>
<asrwt>0</asrwt>
<pdfrwt beam="1">  1       21 0.44881555E-02 0.39237966E+03</pdfrwt>
<pdfrwt beam="2">  1       21 0.18546727E+00 0.39237966E+03</pdfrwt>
<totfact> 0.49381820E+04</totfact>
</mgrwt>
</event>
<event>
 6    0  0.1539497E-004  0.4166779E+03  0.7546771E-02  0.1038153E+00
         21   -1    0    0  502  501  0.00000000000E+00  0.00000000000E+00  0.12838329695E+03  0.12838329695E+03  0.00000000000E+00 0. -1.
         21   -1    0    0  501  502 -0.00000000000E+00 -0.00000000000E+00 -0.33809008127E+03  0.33809008127E+03  0.00000000000E+00 0. -1.
      99925    2    1    2    0    0 -0.35676243295E+02 -0.62030331637E+02 -0.13372370631E+03  0.30355777854E+03  0.26295387219E+03 0.  0.
         25    1    3    3    0    0 -0.42892834806E+02 -0.62044203552E+02 -0.85810082547E+02  0.16941120636E+03  0.12509000000E+03 0.  0.
         25    1    1    2    0    0  0.35676243295E+02  0.62030331637E+02 -0.75983078005E+02  0.16291559969E+03  0.12509000000E+03 0.  0.
         25    1    3    3    0    0  0.72165915120E+01  0.13871914692E-01 -0.47913623766E+02  0.13414657218E+03  0.12509000000E+03 0.  0.
<mgrwt>
<rscale>  2 0.41667791E+03</rscale>
<asrwt>0</asrwt>
<pdfrwt beam="1">  1       21 0.18879897E-01 0.41667791E+03</pdfrwt>
<pdfrwt beam="2">  1       21 0.49719129E-01 0.41667791E+03</pdfrwt>
<totfact> 0.92901978E+04</totfact>
</mgrwt>
</event>
<event>
 6    0  0.1539497E-004  0.3943009E+03  0.7546771E-02  0.1045771E+00
         21   -1    0    0  502  501  0.00000000000E+00  0.00000000000E+00  0.98910707298E+02  0.98910707298E+02  0.00000000000E+00 0.  1.
         21   -1    0    0  501  502 -0.00000000000E+00 -0.00000000000E+00 -0.39296352474E+03  0.39296352474E+03  0.00000000000E+00 0.  1.
      99925    2    1    2    0    0  0.17877301835E+02 -0.26419507968E+02 -0.18749650310E+03  0.32448443382E+03  0.26290230275E+03 0.  0.
         25    1    3    3    0    0  0.31820586936E+02  0.12098655440E+02 -0.11958210007E+03  0.17636982161E+03  0.12509000000E+03 0.  0.
         25    1    1    2    0    0 -0.17877301835E+02  0.26419507968E+02 -0.10655631434E+03  0.16738979822E+03  0.12509000000E+03 0.  0.
         25    1    3    3    0    0 -0.13943285101E+02 -0.38518163407E+02 -0.67914403032E+02  0.14811461221E+03  0.12509000000E+03 0.  0.
<mgrwt>
<rscale>  2 0.39430090E+03</rscale>
<asrwt>0</asrwt>
<pdfrwt beam="1">  1       21 0.14545692E-01 0.39430090E+03</pdfrwt>
<pdfrwt beam="2">  1       21 0.57788754E-01 0.39430090E+03</pdfrwt>
<totfact> 0.10998224E+05</totfact>
</mgrwt>
</event>
<event>
 6    0  0.1539497E-004  0.4024433E+03  0.7546771E-02  0.1042937E+00
         21   -1    0    0  502  501  0.00000000000E+00  0.00000000000E+00  0.86553686416E+02  0.86553686416E+02  0.00000000000E+00 0. -1.
         21   -1    0    0  501  502 -0.00000000000E+00 -0.00000000000E+00 -0.46780380096E+03  0.46780380096E+03  0.00000000000E+00 0. -1.
      99925    2    1    2    0    0 -0.48031378541E+02 -0.89123759133E+01 -0.23896902213E+03  0.35871019982E+03  0.26302161536E+03 0.  0.
         25    1    3    3    0    0 -0.50160774208E+02  0.23823961274E+02 -0.10493005319E+03  0.17245726590E+03  0.12509000000E+03 0.  0.
         25    1    3    3    0    0  0.21293956668E+01 -0.32736337188E+02 -0.13403896894E+03  0.18625293392E+03  0.12509000000E+03 0.  0.
         25    1    1    2    0    0  0.48031378541E+02  0.89123759133E+01 -0.14228109241E+03  0.19564728755E+03  0.12509000000E+03 0.  0.
<mgrwt>
<rscale>  2 0.40244326E+03</rscale>
<asrwt>0</asrwt>
<pdfrwt beam="1">  1       21 0.12728483E-01 0.40244326E+03</pdfrwt>
<pdfrwt beam="2">  1       21 0.68794678E-01 0.40244326E+03</pdfrwt>
<totfact> 0.95516783E+04</totfact>
</mgrwt>
</event>
<event>
 6    0  0.1539497E-004  0.4616983E+03  0.7546771E-02  0.1024290E+00
         21   -1    0    0  502  501  0.00000000000E+00  0.00000000000E+00  0.11372271747E+04  0.11372271747E+04  0.00000000000E+00 0.  1.
         21   -1    0    0  501  502 -0.00000000000E+00 -0.00000000000E+00 -0.46860754626E+02  0.46860754626E+02  0.00000000000E+00 0.  1.
      99925    2    1    2    0    0 -0.85948835990E+02 -0.45109672392E+02  0.50442841467E+03  0.57713410964E+03  0.26308491031E+03 0.  0.
         25    1    3    3    0    0 -0.82881804538E+02 -0.10236107868E+02  0.27904261291E+03  0.31699599264E+03  0.12509000000E+03 0.  0.
         25    1    1    2    0    0  0.85948835990E+02  0.45109672392E+02  0.58593800543E+03  0.60695381971E+03  0.12509000000E+03 0.  0.
         25    1    3    3    0    0 -0.30670314517E+01 -0.34873564524E+02  0.22538580175E+03  0.26013811700E+03  0.12509000000E+03 0.  0.
<mgrwt>
<rscale>  2 0.46169827E+03</rscale>
<asrwt>0</asrwt>
<pdfrwt beam="1">  1       21 0.16723927E+00 0.46169827E+03</pdfrwt>
<pdfrwt beam="2">  1       21 0.68912882E-02 0.46169827E+03</pdfrwt>
<totfact> 0.31013964E+04</totfact>
</mgrwt>
</event>
<event>
 6    0  0.1539497E-004  0.4420109E+03  0.7546771E-02  0.1030132E+00
         21   -1    0    0  502  501  0.00000000000E+00  0.00000000000E+00  0.21899715795E+04  0.21899715795E+04  0.00000000000E+00 0. -1.
         21   -1    0    0  501  502 -0.00000000000E+00 -0.00000000000E+00 -0.22303215192E+02  0.22303215192E+02  0.00000000000E+00 0. -1.
      99925    2    1    2    0    0 -0.72217621818E+02  0.24925262591E+02  0.10543426831E+04  0.10893419230E+04  0.26304121036E+03 0.  0.
         25    1    3    3    0    0 -0.19436484982E+02 -0.19370687527E+02  0.41837551426E+03  0.43753694646E+03  0.12509000000E+03 0.  0.
         25    1    3    3    0    0 -0.52781136836E+02  0.44295950118E+02  0.63596716881E+03  0.65180497659E+03  0.12509000000E+03 0.  0.
         25    1    1    2    0    0  0.72217621818E+02 -0.24925262591E+02  0.11133256812E+04  0.11229328716E+04  0.12509000000E+03 0.  0.
<mgrwt>
<rscale>  2 0.44201089E+03</rscale>
<asrwt>0</asrwt>
<pdfrwt beam="1">  1       21 0.32205450E+00 0.44201089E+03</pdfrwt>
<pdfrwt beam="2">  1       21 0.32798861E-02 0.44201089E+03</pdfrwt>
<totfact> 0.11678053E+04</totfact>
</mgrwt>
</event>
<event>
 6    0  0.1539497E-004  0.4415588E+03  0.7546771E-02  0.1030270E+00
         21   -1    0    0  502  501  0.00000000000E+00  0.00000000000E+00  0.25241673982E+03  0.25241673982E+03  0.00000000000E+00 0.  1.
         21   -1    0    0  501  502 -0.00000000000E+00 -0.00000000000E+00 -0.19310737517E+03  0.19310737517E+03  0.00000000000E+00 0.  1.
      99925    2    1    2    0    0  0.31335666643E+01  0.12497293473E+01  0.13871380966E+03  0.29732170256E+03  0.26295872824E+03 0.  0.
         25    1    3    3    0    0  0.82627051529E+01 -0.37964074690E+02  0.57696034480E+02  0.14312890609E+03  0.12509000000E+03 0.  0.
         25    1    3    3    0    0 -0.51291384886E+01  0.39213804037E+02  0.81017775185E+02  0.15419279647E+03  0.12509000000E+03 0.  0.
         25    1    1    2    0    0 -0.31335666643E+01 -0.12497293473E+01 -0.79404445013E+02  0.14820241243E+03  0.12509000000E+03 0.  0.
<mgrwt>
<rscale>  2 0.44155876E+03</rscale>
<asrwt>0</asrwt>
<pdfrwt beam="1">  1       21 0.37120109E-01 0.44155876E+03</pdfrwt>
<pdfrwt beam="2">  1       21 0.28398143E-01 0.44155876E+03</pdfrwt>
<totfact> 0.77197585E+04</totfact>
</mgrwt>
</event>
<event>
 6    0  0.1539497E-004  0.3992396E+03  0.7546771E-02  0.1044043E+00
         21   -1    0    0  502  501  0.00000000000E+00  0.00000000000E+00  0.38143452703E+02  0.38143452703E+02  0.00000000000E+00 0. -1.
         21   -1    0    0  501  502 -0.00000000000E+00 -0.00000000000E+00 -0.10446897382E+04  0.10446897382E+04  0.00000000000E+00 0. -1.
      99925    2    1    2    0    0 -0.26124786125E+02  0.35368151435E+02 -0.67665385222E+03  0.72729144058E+03  0.26298097505E+03 0.  0.
         25    1    1    2    0    0  0.26124786125E+02 -0.35368151435E+02 -0.32989243330E+03  0.35554175034E+03  0.12509000000E+03 0.  0.
         25    1    3    3    0    0  0.15411563342E+02  0.44061927711E+02 -0.30829448087E+03  0.33596423142E+03  0.12509000000E+03 0.  0.
         25    1    3    3    0    0 -0.41536349467E+02 -0.86937762755E+01 -0.36835937134E+03  0.39132720916E+03  0.12509000000E+03 0.  0.
<mgrwt>
<rscale>  2 0.39923965E+03</rscale>
<asrwt>0</asrwt>
<pdfrwt beam="1">  1       21 0.56093327E-02 0.39923965E+03</pdfrwt>
<pdfrwt beam="2">  1       21 0.15363081E+00 0.39923965E+03</pdfrwt>
<totfact> 0.57225719E+04</totfact>
</mgrwt>
</event>
<event>
 6    0  0.1539497E-004  0.4362400E+03  0.7546771E-02  0.1031907E+00
         21   -1    0    0  502  501  0.00000000000E+00  0.00000000000E+00  0.18707362153E+03  0.18707362153E+03  0.00000000000E+00 0.  1.
         21   -1    0    0  501  502 -0.00000000000E+00 -0.00000000000E+00 -0.25431878193E+03  0.25431878193E+03  0.00000000000E+00 0.  1.
      99925    2    1    2    0    0 -0.30342977220E+02  0.88128352525E+02 -0.27183901288E+02  0.28033429169E+03  0.26298488136E+03 0.  0.
         25    1    1    2    0    0  0.30342977220E+02 -0.88128352525E+02 -0.40061259110E+02  0.16105811177E+03  0.12509000000E+03 0.  0.
         25    1    3    3    0    0 -0.69280880932E+01  0.85280784190E+02 -0.99611102772E+01  0.15188002625E+03  0.12509000000E+03 0.  0.
         25    1    3    3    0    0 -0.23414889127E+02  0.28475683350E+01 -0.17222791011E+02  0.12845426544E+03  0.12509000000E+03 0.  0.
<mgrwt>
<rscale>  2 0.43624001E+03</rscale>
<asrwt>0</asrwt>
<pdfrwt beam="1">  1       21 0.27510827E-01 0.43624001E+03</pdfrwt>
<pdfrwt beam="2">  1       21 0.37399821E-01 0.43624001E+03</pdfrwt>
<totfact> 0.81017216E+04</totfact>
</mgrwt>
</event>
<event>
 6    0  0.1539497E-004  0.4060744E+03  0.7546771E-02  0.1041696E+00
         21   -1    0    0  502  501  0.00000000000E+00  0.00000000000E+00  0.98557596091E+02  0.98557596091E+02  0.00000000000E+00 0.  1.
         21   -1    0    0  501  502 -0.00000000000E+00 -0.00000000000E+00 -0.41827429746E+03  0.41827429746E+03  0.00000000000E+00 0.  1.
      99925    2    1    2    0    0  0.14511837341E+02  0.43116892439E+02 -0.25309918226E+03  0.36798612845E+03  0.26322031615E+03 0.  0.
         25    1    3    3    0    0 -0.30419994065E+02  0.61080830960E+01 -0.11396394333E+03  0.17204061496E+03  0.12509000000E+03 0.  0.
         25    1    3    3    0    0  0.44931831406E+02  0.37008809343E+02 -0.13913523894E+03  0.19594551349E+03  0.12509000000E+03 0.  0.
         25    1    1    2    0    0 -0.14511837341E+02 -0.43116892439E+02 -0.66617519107E+02  0.14884576510E+03  0.12509000000E+03 0.  0.
<mgrwt>
<rscale>  2 0.40607442E+03</rscale>
<asrwt>0</asrwt>
<pdfrwt beam="1">  1       21 0.14493764E-01 0.40607442E+03</pdfrwt>
<pdfrwt beam="2">  1       21 0.61510927E-01 0.40607442E+03</pdfrwt>
<totfact> 0.96365995E+04</totfact>
</mgrwt>
</event>
<event>
 6    0  0.1539497E-004  0.4017856E+03  0.7546771E-02  0.1043163E+00
         21   -1    0    0  502  501  0.00000000000E+00  0.00000000000E+00  0.68970668883E+03  0.68970668883E+03  0.00000000000E+00 0.  1.
         21   -1    0    0  501  502 -0.00000000000E+00 -0.00000000000E+00 -0.58514607571E+02  0.58514607571E+02  0.00000000000E+00 0.  1.
      99925    2    1    2    0    0  0.42918457489E+02  0.19986822405E+02  0.40066584893E+03  0.48170428202E+03  0.26318135525E+03 0.  0.
         25    1    3    3    0    0 -0.17093686255E+02  0.43221938864E+01  0.16534744130E+03  0.20808209898E+03  0.12509000000E+03 0.  0.
         25    1    3    3    0    0  0.60012143744E+02  0.15664628518E+02  0.23531840763E+03  0.27362218305E+03  0.12509000000E+03 0.  0.
         25    1    1    2    0    0 -0.42918457489E+02 -0.19986822405E+02  0.23052623232E+03  0.26651701438E+03  0.12509000000E+03 0.  0.
<mgrwt>
<rscale>  2 0.40178560E+03</rscale>
<asrwt>0</asrwt>
<pdfrwt beam="1">  1       21 0.10142745E+00 0.40178560E+03</pdfrwt>
<pdfrwt beam="2">  1       21 0.86050898E-02 0.40178560E+03</pdfrwt>
<totfact> 0.78324957E+04</totfact>
</mgrwt>
</event>
<event>
 6    0  0.1539497E-004  0.3957541E+03  0.7546771E-02  0.1045260E+00
         21   -1    0    0  502  501  0.00000000000E+00  0.00000000000E+00  0.40718906432E+03  0.40718906432E+03  0.00000000000E+00 0.  1.
         21   -1    0    0  501  502 -0.00000000000E+00 -0.00000000000E+00 -0.96160052166E+02  0.96160052166E+02  0.00000000000E+00 0.  1.
      99925    2    1    2    0    0  0.77064357385E+01 -0.30174129225E+02  0.18467829096E+03  0.32284460111E+03  0.26296900594E+03 0.  0.
         25    1    3    3    0    0 -0.22905947706E+02  0.14975687133E+02  0.81840205507E+02  0.15196802619E+03  0.12509000000E+03 0.  0.
         25    1    1    2    0    0 -0.77064357385E+01  0.30174129225E+02  0.12635072119E+03  0.18050451538E+03  0.12509000000E+03 0.  0.
         25    1    3    3    0    0  0.30612383444E+02 -0.45149816358E+02  0.10283808546E+03  0.17087657492E+03  0.12509000000E+03 0.  0.
<mgrwt>
<rscale>  2 0.39575407E+03</rscale>
<asrwt>0</asrwt>
<pdfrwt beam="1">  1       21 0.59880744E-01 0.39575407E+03</pdfrwt>
<pdfrwt beam="2">  1       21 0.14141184E-01 0.39575407E+03</pdfrwt>
<totfact> 0.10718470E+05</totfact>
</mgrwt>
</event>
<event>
 6    0  0.1539497E-004  0.4516054E+03  0.7546771E-02  0.1027244E+00
         21   -1    0    0  502  501  0.00000000000E+00  0.00000000000E+00  0.10559525807E+04  0.10559525807E+04  0.00000000000E+00 0.  1.
         21   -1    0    0  501  502 -0.00000000000E+00 -0.00000000000E+00 -0.48285185716E+02  0.48285185716E+02  0.00000000000E+00 0.  1.
      99925    2    1    2    0    0 -0.30537561478E+02  0.47168290405E+02  0.40611869428E+03  0.48725661784E+03  0.26330443882E+03 0.  0.
         25    1    1    2    0    0  0.30537561478E+02 -0.47168290405E+02  0.60154870074E+03  0.61698114862E+03  0.12509000000E+03 0.  0.
         25    1    3    3    0    0 -0.40675073144E+02  0.48898218472E+02  0.17561705763E+03  0.22479847948E+03  0.12509000000E+03 0.  0.
         25    1    3    3    0    0  0.10137511666E+02 -0.17299280671E+01  0.23050163665E+03  0.26245813836E+03  0.12509000000E+03 0.  0.
<mgrwt>
<rscale>  2 0.45160543E+03</rscale>
<asrwt>0</asrwt>
<pdfrwt beam="1">  1       21 0.15528713E+00 0.45160543E+03</pdfrwt>
<pdfrwt beam="2">  1       21 0.71007633E-02 0.45160543E+03</pdfrwt>
<totfact> 0.36298688E+04</totfact>
</mgrwt>
</event>
<event>
 6    0  0.1539497E-004  0.5308397E+03  0.7546771E-02  0.1006029E+00
         21   -1    0    0  502  501  0.00000000000E+00  0.00000000000E+00  0.13923707821E+04  0.13923707821E+04  0.00000000000E+00 0. -1.
         21   -1    0    0  501  502 -0.00000000000E+00 -0.00000000000E+00 -0.50595506185E+02  0.50595506185E+02  0.00000000000E+00 0. -1.
      99925    2    1    2    0    0  0.96864128152E+02 -0.83984349369E+02  0.11216159256E+04  0.11591464900E+04  0.26298720593E+03 0.  0.
         25    1    3    3    0    0  0.40157204606E+02 -0.37259834052E+02  0.70203076546E+03  0.71518920579E+03  0.12509000000E+03 0.  0.
         25    1    3    3    0    0  0.56706923546E+02 -0.46724515318E+02  0.41958516011E+03  0.44395728420E+03  0.12509000000E+03 0.  0.
         25    1    1    2    0    0 -0.96864128152E+02  0.83984349369E+02  0.22015935032E+03  0.28381979828E+03  0.12509000000E+03 0.  0.
<mgrwt>
<rscale>  2 0.53083973E+03</rscale>
<asrwt>0</asrwt>
<pdfrwt beam="1">  1       21 0.20476038E+00 0.53083973E+03</pdfrwt>
<pdfrwt beam="2">  1       21 0.74405165E-02 0.53083973E+03</pdfrwt>
<totfact> 0.14555297E+04</totfact>
</mgrwt>
</event>
<event>
 6    0  0.1539497E-004  0.4216595E+03  0.7546771E-02  0.1036528E+00
         21   -1    0    0  502  501  0.00000000000E+00  0.00000000000E+00  0.43049542832E+03  0.43049542832E+03  0.00000000000E+00 0.  1.
         21   -1    0    0  501  502 -0.00000000000E+00 -0.00000000000E+00 -0.10325121974E+03  0.10325121974E+03  0.00000000000E+00 0.  1.
      99925    2    1    2    0    0  0.35756916938E+02 -0.52880142284E+02  0.15605257675E+03  0.31232183133E+03  0.26290236412E+03 0.  0.
         25    1    3    3    0    0  0.95201040680E+01 -0.30143957137E+02  0.32379016998E+02  0.13302330388E+03  0.12509000000E+03 0.  0.
         25    1    3    3    0    0  0.26236812870E+02 -0.22736185146E+02  0.12367355975E+03  0.17929852745E+03  0.12509000000E+03 0.  0.
         25    1    1    2    0    0 -0.35756916938E+02  0.52880142284E+02  0.17119163183E+03  0.22142481673E+03  0.12509000000E+03 0.  0.
<mgrwt>
<rscale>  2 0.42165947E+03</rscale>
<asrwt>0</asrwt>
<pdfrwt beam="1">  1       21 0.63308151E-01 0.42165947E+03</pdfrwt>
<pdfrwt beam="2">  1       21 0.15184003E-01 0.42165947E+03</pdfrwt>
<totfact> 0.82714306E+04</totfact>
</mgrwt>
</event>
<event>
 6    0  0.1539497E-004  0.3995592E+03  0.7546771E-02  0.1043932E+00
         21   -1    0    0  502  501  0.00000000000E+00  0.00000000000E+00  0.99101985428E+02  0.99101985428E+02  0.00000000000E+00 0.  1.
         21   -1    0    0  501  502 -0.00000000000E+00 -0.00000000000E+00 -0.40273552794E+03  0.40273552794E+03  0.00000000000E+00 0.  1.
      99925    2    1    2    0    0 -0.30677379720E+02  0.10785664998E+02 -0.16438440120E+03  0.31184997785E+03  0.26300331772E+03 0.  0.
         25    1    3    3    0    0 -0.42095143702E+02 -0.70483458917E+01 -0.50908846122E+02  0.14163650312E+03  0.12509000000E+03 0.  0.
         25    1    3    3    0    0  0.11417763981E+02  0.17834010890E+02 -0.11347555508E+03  0.17021347473E+03  0.12509000000E+03 0.  0.
         25    1    1    2    0    0  0.30677379720E+02 -0.10785664998E+02 -0.13924914131E+03  0.18998753552E+03  0.12509000000E+03 0.  0.
<mgrwt>
<rscale>  2 0.39955921E+03</rscale>
<asrwt>0</asrwt>
<pdfrwt beam="1">  1       21 0.14573821E-01 0.39955921E+03</pdfrwt>
<pdfrwt beam="2">  1       21 0.59225813E-01 0.39955921E+03</pdfrwt>
<totfact> 0.10377227E+05</totfact>
</mgrwt>
</event>
<event>
 6    0  0.1539497E-004  0.4535916E+03  0.7546771E-02  0.1026656E+00
         21   -1    0    0  502  501  0.00000000000E+00  0.00000000000E+00  0.31640020452E+03  0.31640020452E+03  0.00000000000E+00 0. -1.
         21   -1    0    0  501  502 -0.00000000000E+00 -0.00000000000E+00 -0.16256735450E+03  0.16256735450E+03  0.00000000000E+00 0. -1.
      99925    2    1    2    0    0 -0.97648371110E+02  0.27280915472E+02  0.46336144470E+02  0.28536357524E+03  0.26268970109E+03 0.  0.
         25    1    1    2    0    0  0.97648371110E+02 -0.27280915472E+02  0.10749670555E+03  0.19360398377E+03  0.12509000000E+03 0.  0.
         25    1    3    3    0    0 -0.63918779909E+02 -0.19756303925E+02  0.39987538259E+02  0.14738532249E+03  0.12509000000E+03 0.  0.
         25    1    3    3    0    0 -0.33729591201E+02  0.47037219397E+02  0.63486062109E+01  0.13797825275E+03  0.12509000000E+03 0.  0.
<mgrwt>
<rscale>  2 0.45359164E+03</rscale>
<asrwt>0</asrwt>
<pdfrwt beam="1">  1       21 0.46529442E-01 0.45359164E+03</pdfrwt>
<pdfrwt beam="2">  1       21 0.23906964E-01 0.45359164E+03</pdfrwt>
<totfact> 0.67527040E+04</totfact>
</mgrwt>
</event>
<event>
 6    0  0.1539497E-004  0.4413608E+03  0.7546771E-02  0.1030330E+00
         21   -1    0    0  502  501  0.00000000000E+00  0.00000000000E+00  0.63963164670E+02  0.63963164670E+02  0.00000000000E+00 0. -1.
         21   -1    0    0  501  502 -0.00000000000E+00 -0.00000000000E+00 -0.76137330825E+03  0.76137330825E+03  0.00000000000E+00 0. -1.
      99925    2    1    2    0    0 -0.92683683953E+02 -0.31969480538E+02 -0.48042728419E+03  0.55637293947E+03  0.26292234485E+03 0.  0.
         25    1    3    3    0    0 -0.36184812463E+02 -0.41195279619E+01 -0.15763120495E+03  0.20450285093E+03  0.12509000000E+03 0.  0.
         25    1    3    3    0    0 -0.56498871490E+02 -0.27849952577E+02 -0.32279607923E+03  0.35187008854E+03  0.12509000000E+03 0.  0.
         25    1    1    2    0    0  0.92683683953E+02  0.31969480538E+02 -0.21698285940E+03  0.26896353345E+03  0.12509000000E+03 0.  0.
<mgrwt>
<rscale>  2 0.44136083E+03</rscale>
<asrwt>0</asrwt>
<pdfrwt beam="1">  1       21 0.94063474E-02 0.44136083E+03</pdfrwt>
<pdfrwt beam="2">  1       21 0.11196667E+00 0.44136083E+03</pdfrwt>
<totfact> 0.51898713E+04</totfact>
</mgrwt>
</event>
<event>
 6    0  0.1539497E-004  0.3904413E+03  0.7546771E-02  0.1047141E+00
         21   -1    0    0  502  501  0.00000000000E+00  0.00000000000E+00  0.15144224859E+03  0.15144224859E+03  0.00000000000E+00 0.  1.
         21   -1    0    0  501  502 -0.00000000000E+00 -0.00000000000E+00 -0.25165435848E+03  0.25165435848E+03  0.00000000000E+00 0.  1.
      99925    2    1    2    0    0 -0.14091181854E+02 -0.12184186547E+02 -0.59653546681E+02  0.27028274877E+03  0.26295855727E+03 0.  0.
         25    1    1    2    0    0  0.14091181854E+02  0.12184186547E+02 -0.40558563216E+02  0.13281385831E+03  0.12509000000E+03 0.  0.
         25    1    3    3    0    0  0.12884184621E+02  0.52460008454E+01 -0.63719425042E+02  0.14107159872E+03  0.12509000000E+03 0.  0.
         25    1    3    3    0    0 -0.26975366475E+02 -0.17430187393E+02  0.40658783608E+01  0.12921115004E+03  0.12509000000E+03 0.  0.
<mgrwt>
<rscale>  2 0.39044130E+03</rscale>
<asrwt>0</asrwt>
<pdfrwt beam="1">  1       21 0.22270919E-01 0.39044130E+03</pdfrwt>
<pdfrwt beam="2">  1       21 0.37007994E-01 0.39044130E+03</pdfrwt>
<totfact> 0.12587501E+05</totfact>
</mgrwt>
</event>
<event>
 6    0  0.1539497E-004  0.4389773E+03  0.7546771E-02  0.1031061E+00
         21   -1    0    0  502  501  0.00000000000E+00  0.00000000000E+00  0.12047173703E+03  0.12047173703E+03  0.00000000000E+00 0.  1.
         21   -1    0    0  501  502 -0.00000000000E+00 -0.00000000000E+00 -0.39988857371E+03  0.39988857371E+03  0.00000000000E+00 0.  1.
      99925    2    1    2    0    0  0.94501254120E+02 -0.15369003500E+02 -0.20046493131E+03  0.34415700555E+03  0.26285197828E+03 0.  0.
         25    1    3    3    0    0  0.53776518125E+02 -0.33082255926E+02 -0.64881177296E+02  0.15441316274E+03  0.12509000000E+03 0.  0.
         25    1    1    2    0    0 -0.94501254120E+02  0.15369003500E+02 -0.78951905364E+02  0.17620330519E+03  0.12509000000E+03 0.  0.
         25    1    3    3    0    0  0.40724735995E+02  0.17713252426E+02 -0.13558375402E+03  0.18974384282E+03  0.12509000000E+03 0.  0.
<mgrwt>
<rscale>  2 0.43897732E+03</rscale>
<asrwt>0</asrwt>
<pdfrwt beam="1">  1       21 0.17716432E-01 0.43897732E+03</pdfrwt>
<pdfrwt beam="2">  1       21 0.58807143E-01 0.43897732E+03</pdfrwt>
<totfact> 0.72656653E+04</totfact>
</mgrwt>
</event>
<event>
 6    0  0.1539497E-004  0.4035010E+03  0.7546771E-02  0.1042574E+00
         21   -1    0    0  502  501  0.00000000000E+00  0.00000000000E+00  0.22339267526E+03  0.22339267526E+03  0.00000000000E+00 0. -1.
         21   -1    0    0  501  502 -0.00000000000E+00 -0.00000000000E+00 -0.18220501454E+03  0.18220501454E+03  0.00000000000E+00 0. -1.
      99925    2    1    2    0    0  0.14201308316E+02 -0.10241387779E+02  0.76794722738E+02  0.27436532281E+03  0.26281616719E+03 0.  0.
         25    1    3    3    0    0  0.39826256882E+02 -0.28614304503E+02  0.41467960449E+02  0.14061297594E+03  0.12509000000E+03 0.  0.
         25    1    1    2    0    0 -0.14201308316E+02  0.10241387779E+02 -0.35607062022E+02  0.13123236700E+03  0.12509000000E+03 0.  0.
         25    1    3    3    0    0 -0.25624948566E+02  0.18372916724E+02  0.35326762289E+02  0.13375234686E+03  0.12509000000E+03 0.  0.
<mgrwt>
<rscale>  2 0.40350101E+03</rscale>
<asrwt>0</asrwt>
<pdfrwt beam="1">  1       21 0.32851864E-01 0.40350101E+03</pdfrwt>
<pdfrwt beam="2">  1       21 0.26794855E-01 0.40350101E+03</pdfrwt>
<totfact> 0.11160374E+05</totfact>
</mgrwt>
</event>
<event>
 6    0  0.1539497E-004  0.4967467E+03  0.7546771E-02  0.1014632E+00
         21   -1    0    0  502  501  0.00000000000E+00  0.00000000000E+00  0.13004162943E+04  0.13004162943E+04  0.00000000000E+00 0. -1.
         21   -1    0    0  501  502 -0.00000000000E+00 -0.00000000000E+00 -0.47438133166E+02  0.47438133166E+02  0.00000000000E+00 0. -1.
      99925    2    1    2    0    0 -0.50761705691E+01 -0.14551743140E+03  0.67714217807E+03  0.74086540133E+03  0.26298084194E+03 0.  0.
         25    1    3    3    0    0 -0.54702137172E+00 -0.35352808980E+02  0.23895725602E+03  0.27202609919E+03  0.12509000000E+03 0.  0.
         25    1    3    3    0    0 -0.45291491974E+01 -0.11016462242E+03  0.43818492205E+03  0.46883930215E+03  0.12509000000E+03 0.  0.
         25    1    1    2    0    0  0.50761705691E+01  0.14551743140E+03  0.57583598303E+03  0.60698902609E+03  0.12509000000E+03 0.  0.
<mgrwt>
<rscale>  2 0.49674670E+03</rscale>
<asrwt>0</asrwt>
<pdfrwt beam="1">  1       21 0.19123767E+00 0.49674670E+03</pdfrwt>
<pdfrwt beam="2">  1       21 0.69761969E-02 0.49674670E+03</pdfrwt>
<totfact> 0.20314830E+04</totfact>
</mgrwt>
</event>
<event>
 6    0  0.1539497E-004  0.4065854E+03  0.7546771E-02  0.1041523E+00
         21   -1    0    0  502  501  0.00000000000E+00  0.00000000000E+00  0.84996632093E+02  0.84996632093E+02  0.00000000000E+00 0. -1.
         21   -1    0    0  501  502 -0.00000000000E+00 -0.00000000000E+00 -0.48623005218E+03  0.48623005218E+03  0.00000000000E+00 0. -1.
      99925    2    1    2    0    0 -0.44981169857E+02 -0.35568192064E+02 -0.27061714580E+03  0.38149919250E+03  0.26271580148E+03 0.  0.
         25    1    3    3    0    0  0.74771442713E+01 -0.35899736547E+01 -0.16180724404E+03  0.20468973575E+03  0.12509000000E+03 0.  0.
         25    1    3    3    0    0 -0.52458314128E+02 -0.31978218409E+02 -0.10880990176E+03  0.17680945675E+03  0.12509000000E+03 0.  0.
         25    1    1    2    0    0  0.44981169857E+02  0.35568192064E+02 -0.13061627429E+03  0.18972749178E+03  0.12509000000E+03 0.  0.
<mgrwt>
<rscale>  2 0.40658538E+03</rscale>
<asrwt>0</asrwt>
<pdfrwt beam="1">  1       21 0.12499505E-01 0.40658538E+03</pdfrwt>
<pdfrwt beam="2">  1       21 0.71504420E-01 0.40658538E+03</pdfrwt>
<totfact> 0.90443784E+04</totfact>
</mgrwt>
</event>
<event>
 6    0  0.1539497E-004  0.4047310E+03  0.7546771E-02  0.1042154E+00
         21   -1    0    0  502  501  0.00000000000E+00  0.00000000000E+00  0.57080583758E+02  0.57080583758E+02  0.00000000000E+00 0. -1.
         21   -1    0    0  501  502 -0.00000000000E+00 -0.00000000000E+00 -0.71743840648E+03  0.71743840648E+03  0.00000000000E+00 0. -1.
      99925    2    1    2    0    0  0.35070732220E+02  0.77475476704E+01 -0.36097086575E+03  0.44806832190E+03  0.26301192828E+03 0.  0.
         25    1    1    2    0    0 -0.35070732220E+02 -0.77475476704E+01 -0.29938695697E+03  0.32645066834E+03  0.12509000000E+03 0.  0.
         25    1    3    3    0    0  0.31160765159E+02  0.21322615564E+02 -0.12609879644E+03  0.18158761462E+03  0.12509000000E+03 0.  0.
         25    1    3    3    0    0  0.39099670608E+01 -0.13575067894E+02 -0.23487206931E+03  0.26648070728E+03  0.12509000000E+03 0.  0.
<mgrwt>
<rscale>  2 0.40473104E+03</rscale>
<asrwt>0</asrwt>
<pdfrwt beam="1">  1       21 0.83942039E-02 0.40473104E+03</pdfrwt>
<pdfrwt beam="2">  1       21 0.10550564E+00 0.40473104E+03</pdfrwt>
<totfact> 0.74274206E+04</totfact>
</mgrwt>
</event>
<event>
 6    0  0.1539497E-004  0.4596504E+03  0.7546771E-02  0.1024883E+00
         21   -1    0    0  502  501  0.00000000000E+00  0.00000000000E+00  0.41573714985E+03  0.41573714985E+03  0.00000000000E+00 0.  1.
         21   -1    0    0  501  502 -0.00000000000E+00 -0.00000000000E+00 -0.12705053109E+03  0.12705053109E+03  0.00000000000E+00 0.  1.
      99925    2    1    2    0    0  0.51000444611E+02 -0.88762491391E+02  0.24880528063E+03  0.37630088129E+03  0.26309401431E+03 0.  0.
         25    1    3    3    0    0  0.40338100587E+02 -0.15568965802E+02  0.15269867649E+03  0.20207411748E+03  0.12509000000E+03 0.  0.
         25    1    1    2    0    0 -0.51000444611E+02  0.88762491391E+02  0.39881338131E+02  0.16648679966E+03  0.12509000000E+03 0.  0.
         25    1    3    3    0    0  0.10662344024E+02 -0.73193525589E+02  0.96106604142E+02  0.17422676381E+03  0.12509000000E+03 0.  0.
<mgrwt>
<rscale>  2 0.45965041E+03</rscale>
<asrwt>0</asrwt>
<pdfrwt beam="1">  1       21 0.61137816E-01 0.45965041E+03</pdfrwt>
<pdfrwt beam="2">  1       21 0.18683902E-01 0.45965041E+03</pdfrwt>
<totfact> 0.60103065E+04</totfact>
</mgrwt>
</event>
<event>
 6    0  0.1539497E-004  0.4336929E+03  0.7546771E-02  0.1032700E+00
         21   -1    0    0  502  501  0.00000000000E+00  0.00000000000E+00  0.26250924670E+03  0.26250924670E+03  0.00000000000E+00 0.  1.
         21   -1    0    0  501  502 -0.00000000000E+00 -0.00000000000E+00 -0.17912656094E+03  0.17912656094E+03  0.00000000000E+00 0.  1.
      99925    2    1    2    0    0  0.15835969170E+02  0.11556803513E+02 -0.37935857737E+02  0.26627892947E+03  0.26283264894E+03 0.  0.
         25    1    3    3    0    0  0.27177509369E+02  0.38082759154E+02 -0.45290264919E+01  0.13362983851E+03  0.12509000000E+03 0.  0.
         25    1    1    2    0    0 -0.15835969170E+02 -0.11556803513E+02  0.12131854349E+03  0.17535687817E+03  0.12509000000E+03 0.  0.
         25    1    3    3    0    0 -0.11341540199E+02 -0.26525955642E+02 -0.33406831245E+02  0.13264909095E+03  0.12509000000E+03 0.  0.
<mgrwt>
<rscale>  2 0.43369288E+03</rscale>
<asrwt>0</asrwt>
<pdfrwt beam="1">  1       21 0.38604301E-01 0.43369288E+03</pdfrwt>
<pdfrwt beam="2">  1       21 0.26342141E-01 0.43369288E+03</pdfrwt>
<totfact> 0.82722540E+04</totfact>
</mgrwt>
</event>
<event>
 6    0  0.1539497E-004  0.4042113E+03  0.7546771E-02  0.1042331E+00
         21   -1    0    0  502  501  0.00000000000E+00  0.00000000000E+00  0.14849922610E+03  0.14849922610E+03  0.00000000000E+00 0. -1.
         21   -1    0    0  501  502 -0.00000000000E+00 -0.00000000000E+00 -0.27506339297E+03  0.27506339297E+03  0.00000000000E+00 0. -1.
      99925    2    1    2    0    0 -0.10215472792E+02 -0.48432898552E+02 -0.63812191218E+02  0.27511929624E+03  0.26299910621E+03 0.  0.
         25    1    3    3    0    0  0.27907371723E+02 -0.99182062734E+01 -0.50628991900E+02  0.13815931070E+03  0.12509000000E+03 0.  0.
         25    1    1    2    0    0  0.10215472792E+02  0.48432898552E+02 -0.62751975649E+02  0.14844332284E+03  0.12509000000E+03 0.  0.
         25    1    3    3    0    0 -0.38122844515E+02 -0.38514692279E+02 -0.13183199318E+02  0.13695998554E+03  0.12509000000E+03 0.  0.
<mgrwt>
<rscale>  2 0.40421134E+03</rscale>
<asrwt>0</asrwt>
<pdfrwt beam="1">  1       21 0.21838122E-01 0.40421134E+03</pdfrwt>
<pdfrwt beam="2">  1       21 0.40450499E-01 0.40421134E+03</pdfrwt>
<totfact> 0.10866474E+05</totfact>
</mgrwt>
</event>
<event>
 6    0  0.1539497E-004  0.4526796E+03  0.7546771E-02  0.1026926E+00
         21   -1    0    0  502  501  0.00000000000E+00  0.00000000000E+00  0.13289345218E+03  0.13289345218E+03  0.00000000000E+00 0. -1.
         21   -1    0    0  501  502 -0.00000000000E+00 -0.00000000000E+00 -0.38549456278E+03  0.38549456278E+03  0.00000000000E+00 0. -1.
      99925    2    1    2    0    0 -0.51567309838E+02  0.72762132892E+01 -0.47735117864E+02  0.27276693728E+03  0.26345973102E+03 0.  0.
         25    1    3    3    0    0 -0.44069884714E+02  0.10522030369E+02 -0.61665011459E+02  0.14663884069E+03  0.12509000000E+03 0.  0.
         25    1    3    3    0    0 -0.74974251242E+01 -0.32458170800E+01  0.13929893594E+02  0.12612809658E+03  0.12509000000E+03 0.  0.
         25    1    1    2    0    0  0.51567309838E+02 -0.72762132892E+01 -0.20486599274E+03  0.24562107769E+03  0.12509000000E+03 0.  0.
<mgrwt>
<rscale>  2 0.45267959E+03</rscale>
<asrwt>0</asrwt>
<pdfrwt beam="1">  1       21 0.19543155E-01 0.45267959E+03</pdfrwt>
<pdfrwt beam="2">  1       21 0.56690376E-01 0.45267959E+03</pdfrwt>
<totfact> 0.65189101E+04</totfact>
</mgrwt>
</event>
<event>
 6    0  0.1539497E-004  0.4520130E+03  0.7546771E-02  0.1027123E+00
         21   -1    0    0  502  501  0.00000000000E+00  0.00000000000E+00  0.24873069913E+03  0.24873069913E+03  0.00000000000E+00 0. -1.
         21   -1    0    0  501  502 -0.00000000000E+00 -0.00000000000E+00 -0.20535841581E+03  0.20535841581E+03  0.00000000000E+00 0. -1.
      99925    2    1    2    0    0 -0.53178747804E+01 -0.10512301640E+03  0.60463543757E+02  0.28971531031E+03  0.26305891457E+03 0.  0.
         25    1    3    3    0    0 -0.30913499780E+02 -0.27259178072E+02  0.10856465158E+02  0.13215172414E+03  0.12509000000E+03 0.  0.
         25    1    1    2    0    0  0.53178747804E+01  0.10512301640E+03 -0.17091260439E+02  0.16437380464E+03  0.12509000000E+03 0.  0.
         25    1    3    3    0    0  0.25595625000E+02 -0.77863838324E+02  0.49607078599E+02  0.15756358616E+03  0.12509000000E+03 0.  0.
<mgrwt>
<rscale>  2 0.45201302E+03</rscale>
<asrwt>0</asrwt>
<pdfrwt beam="1">  1       21 0.36578044E-01 0.45201302E+03</pdfrwt>
<pdfrwt beam="2">  1       21 0.30199767E-01 0.45201302E+03</pdfrwt>
<totfact> 0.70272430E+04</totfact>
</mgrwt>
</event>
<event>
 6    0  0.1539497E-004  0.4857372E+03  0.7546771E-02  0.1017570E+00
         21   -1    0    0  502  501  0.00000000000E+00  0.00000000000E+00  0.14949767140E+03  0.14949767140E+03  0.00000000000E+00 0.  1.
         21   -1    0    0  501  502 -0.00000000000E+00 -0.00000000000E+00 -0.39455567519E+03  0.39455567519E+03  0.00000000000E+00 0.  1.
      99925    2    1    2    0    0 -0.51110698381E+02  0.11126396132E+03 -0.74107987131E+02  0.29938338752E+03  0.26295711891E+03 0.  0.
         25    1    3    3    0    0 -0.45375562283E+02  0.20193722923E+02 -0.44395847031E+02  0.14172236038E+03  0.12509000000E+03 0.  0.
         25    1    1    2    0    0  0.51110698381E+02 -0.11126396132E+03 -0.17095001665E+03  0.24466995907E+03  0.12509000000E+03 0.  0.
         25    1    3    3    0    0 -0.57351360983E+01  0.91070238401E+02 -0.29712140100E+02  0.15766102714E+03  0.12509000000E+03 0.  0.
<mgrwt>
<rscale>  2 0.48573719E+03</rscale>
<asrwt>0</asrwt>
<pdfrwt beam="1">  1       21 0.21984952E-01 0.48573719E+03</pdfrwt>
<pdfrwt beam="2">  1       21 0.58022893E-01 0.48573719E+03</pdfrwt>
<totfact> 0.49152196E+04</totfact>
</mgrwt>
</event>
<event>
 6    0  0.1539497E-004  0.4186171E+03  0.7546771E-02  0.1037517E+00
         21   -1    0    0  502  501  0.00000000000E+00  0.00000000000E+00  0.92672320936E+02  0.92672320936E+02  0.00000000000E+00 0.  1.
         21   -1    0    0  501  502 -0.00000000000E+00 -0.00000000000E+00 -0.47274168728E+03  0.47274168728E+03  0.00000000000E+00 0.  1.
      99925    2    1    2    0    0 -0.72445811863E+02  0.27806269002E+00 -0.22728200269E+03  0.35508103513E+03  0.26301513224E+03 0.  0.
         25    1    3    3    0    0 -0.35944506555E+02 -0.16865610833E+02 -0.65609573605E+02  0.14672620975E+03  0.12509000000E+03 0.  0.
         25    1    3    3    0    0 -0.36501305308E+02  0.17143673523E+02 -0.16167242909E+03  0.20835482538E+03  0.12509000000E+03 0.  0.
         25    1    1    2    0    0  0.72445811863E+02 -0.27806269002E+00 -0.15278736366E+03  0.21033297309E+03  0.12509000000E+03 0.  0.
<mgrwt>
<rscale>  2 0.41861710E+03</rscale>
<asrwt>0</asrwt>
<pdfrwt beam="1">  1       21 0.13628282E-01 0.41861710E+03</pdfrwt>
<pdfrwt beam="2">  1       21 0.69520837E-01 0.41861710E+03</pdfrwt>
<totfact> 0.82035595E+04</totfact>
</mgrwt>
</event>
<event>
 6    0  0.1539497E-004  0.4860066E+03  0.7546771E-02  0.1017497E+00
         21   -1    0    0  502  501  0.00000000000E+00  0.00000000000E+00  0.24340588122E+03  0.24340588122E+03  0.00000000000E+00 0. -1.
         21   -1    0    0  501  502 -0.00000000000E+00 -0.00000000000E+00 -0.24260136356E+03  0.24260136356E+03  0.00000000000E+00 0. -1.
      99925    2    1    2    0    0 -0.13357554171E+03 -0.24043418577E+02  0.35851912188E+02  0.29813404476E+03  0.26301718140E+03 0.  0.
         25    1    1    2    0    0  0.13357554171E+03  0.24043418577E+02 -0.35047394528E+02  0.18787320002E+03  0.12509000000E+03 0.  0.
         25    1    3    3    0    0 -0.46105121135E+02 -0.46672364042E+02  0.25007771690E+02  0.14344646564E+03  0.12509000000E+03 0.  0.
         25    1    3    3    0    0 -0.87470420578E+02  0.22628945466E+02  0.10844140499E+02  0.15468757911E+03  0.12509000000E+03 0.  0.
<mgrwt>
<rscale>  2 0.48600658E+03</rscale>
<asrwt>0</asrwt>
<pdfrwt beam="1">  1       21 0.35794983E-01 0.48600658E+03</pdfrwt>
<pdfrwt beam="2">  1       21 0.35676671E-01 0.48600658E+03</pdfrwt>
<totfact> 0.52177727E+04</totfact>
</mgrwt>
</event>
<event>
 6    0  0.1539497E-004  0.4768294E+03  0.7546771E-02  0.1020010E+00
         21   -1    0    0  502  501  0.00000000000E+00  0.00000000000E+00  0.12014255976E+03  0.12014255976E+03  0.00000000000E+00 0.  1.
         21   -1    0    0  501  502 -0.00000000000E+00 -0.00000000000E+00 -0.47311764259E+03  0.47311764259E+03  0.00000000000E+00 0.  1.
      99925    2    1    2    0    0  0.69787180094E+02 -0.51630110484E+02 -0.34279203071E+03  0.44065901801E+03  0.26294120069E+03 0.  0.
         25    1    3    3    0    0  0.72766826481E+02 -0.31826515385E+02 -0.15795884098E+03  0.21657895018E+03  0.12509000000E+03 0.  0.
         25    1    1    2    0    0 -0.69787180094E+02  0.51630110484E+02 -0.10183052114E+02  0.15260118435E+03  0.12509000000E+03 0.  0.
         25    1    3    3    0    0 -0.29796463870E+01 -0.19803595099E+02 -0.18483318973E+03  0.22408006783E+03  0.12509000000E+03 0.  0.
<mgrwt>
<rscale>  2 0.47682938E+03</rscale>
<asrwt>0</asrwt>
<pdfrwt beam="1">  1       21 0.17668023E-01 0.47682938E+03</pdfrwt>
<pdfrwt beam="2">  1       21 0.69576125E-01 0.47682938E+03</pdfrwt>
<totfact> 0.49910286E+04</totfact>
</mgrwt>
</event>
<event>
 6    0  0.1539497E-004  0.4627761E+03  0.7546771E-02  0.1023979E+00
         21   -1    0    0  502  501  0.00000000000E+00  0.00000000000E+00  0.17067096042E+03  0.17067096042E+03  0.00000000000E+00 0.  1.
         21   -1    0    0  501  502 -0.00000000000E+00 -0.00000000000E+00 -0.31370556088E+03  0.31370556088E+03  0.00000000000E+00 0.  1.
      99925    2    1    2    0    0  0.23929592221E+02  0.88464129817E+01 -0.21234179987E+03  0.33911165839E+03  0.26316685293E+03 0.  0.
         25    1    1    2    0    0 -0.23929592221E+02 -0.88464129817E+01  0.69307199405E+02  0.14526486291E+03  0.12509000000E+03 0.  0.
         25    1    3    3    0    0  0.37841041183E+02  0.23888068389E+02 -0.14069502866E+03  0.19350757969E+03  0.12509000000E+03 0.  0.
         25    1    3    3    0    0 -0.13911448962E+02 -0.15041655407E+02 -0.71646771209E+02  0.14560407870E+03  0.12509000000E+03 0.  0.
<mgrwt>
<rscale>  2 0.46277610E+03</rscale>
<asrwt>0</asrwt>
<pdfrwt beam="1">  1       21 0.25098671E-01 0.46277610E+03</pdfrwt>
<pdfrwt beam="2">  1       21 0.46133171E-01 0.46277610E+03</pdfrwt>
<totfact> 0.62439112E+04</totfact>
</mgrwt>
</event>
<event>
 6    0  0.1539497E-004  0.4857727E+03  0.7546771E-02  0.1017561E+00
         21   -1    0    0  502  501  0.00000000000E+00  0.00000000000E+00  0.12443990823E+04  0.12443990823E+04  0.00000000000E+00 0. -1.
         21   -1    0    0  501  502 -0.00000000000E+00 -0.00000000000E+00 -0.47407448617E+02  0.47407448617E+02  0.00000000000E+00 0. -1.
      99925    2    1    2    0    0 -0.12543024977E+02 -0.87854699541E+02  0.10222587127E+04  0.10593094826E+04  0.26315001141E+03 0.  0.
         25    1    3    3    0    0  0.47079188191E+01 -0.76447422370E+02  0.45513176798E+03  0.47818281777E+03  0.12509000000E+03 0.  0.
         25    1    1    2    0    0  0.12543024977E+02  0.87854699541E+02  0.17473292098E+03  0.23249704833E+03  0.12509000000E+03 0.  0.
         25    1    3    3    0    0 -0.17250943796E+02 -0.11407277170E+02  0.56712694476E+03  0.58112666486E+03  0.12509000000E+03 0.  0.
<mgrwt>
<rscale>  2 0.48577273E+03</rscale>
<asrwt>0</asrwt>
<pdfrwt beam="1">  1       21 0.18299984E+00 0.48577273E+03</pdfrwt>
<pdfrwt beam="2">  1       21 0.69716844E-02 0.48577273E+03</pdfrwt>
<totfact> 0.23263353E+04</totfact>
</mgrwt>
</event>
<event>
 6    0  0.1539497E-004  0.4573417E+03  0.7546771E-02  0.1025555E+00
         21   -1    0    0  502  501  0.00000000000E+00  0.00000000000E+00  0.81219743424E+03  0.81219743424E+03  0.00000000000E+00 0. -1.
         21   -1    0    0  501  502 -0.00000000000E+00 -0.00000000000E+00 -0.64381328849E+02  0.64381328849E+02  0.00000000000E+00 0. -1.
      99925    2    1    2    0    0 -0.21681295047E+02  0.37811594419E+02  0.67432990426E+03  0.72509435767E+03  0.26294716679E+03 0.  0.
         25    1    3    3    0    0 -0.39839770964E+02 -0.93270671569E+01  0.33726802108E+03  0.36203788154E+03  0.12509000000E+03 0.  0.
         25    1    1    2    0    0  0.21681295047E+02 -0.37811594419E+02  0.73486201130E+02  0.15148440541E+03  0.12509000000E+03 0.  0.
         25    1    3    3    0    0  0.18158475917E+02  0.47138661576E+02  0.33706188318E+03  0.36305647613E+03  0.12509000000E+03 0.  0.
<mgrwt>
<rscale>  2 0.45734167E+03</rscale>
<asrwt>0</asrwt>
<pdfrwt beam="1">  1       21 0.11944079E+00 0.45734167E+03</pdfrwt>
<pdfrwt beam="2">  1       21 0.94678430E-02 0.45734167E+03</pdfrwt>
<totfact> 0.43459290E+04</totfact>
</mgrwt>
</event>
<event>
 6    0  0.1539497E-004  0.4167061E+03  0.7546771E-02  0.1038144E+00
         21   -1    0    0  502  501  0.00000000000E+00  0.00000000000E+00  0.33890139749E+03  0.33890139749E+03  0.00000000000E+00 0. -1.
         21   -1    0    0  501  502 -0.00000000000E+00 -0.00000000000E+00 -0.12809326867E+03  0.12809326867E+03  0.00000000000E+00 0. -1.
      99925    2    1    2    0    0 -0.61793961918E+02  0.98203340861E+01  0.98884705467E+02  0.28785981894E+03  0.26300220093E+03 0.  0.
         25    1    3    3    0    0 -0.78325941376E+01  0.34794622631E+02  0.64321054349E+02  0.14510934301E+03  0.12509000000E+03 0.  0.
         25    1    3    3    0    0 -0.53961367781E+02 -0.24974288545E+02  0.34563651118E+02  0.14275047594E+03  0.12509000000E+03 0.  0.
         25    1    1    2    0    0  0.61793961918E+02 -0.98203340861E+01  0.11192342336E+03  0.17913484722E+03  0.12509000000E+03 0.  0.
<mgrwt>
<rscale>  2 0.41670607E+03</rscale>
<asrwt>0</asrwt>
<pdfrwt beam="1">  1       21 0.49838441E-01 0.41670607E+03</pdfrwt>
<pdfrwt beam="2">  1       21 0.18837245E-01 0.41670607E+03</pdfrwt>
<totfact> 0.92826068E+04</totfact>
</mgrwt>
</event>
<event>
 6    0  0.1539497E-004  0.4870525E+03  0.7546771E-02  0.1017215E+00
         21   -1    0    0  502  501  0.00000000000E+00  0.00000000000E+00  0.50527973049E+02  0.50527973049E+02  0.00000000000E+00 0.  1.
         21   -1    0    0  501  502 -0.00000000000E+00 -0.00000000000E+00 -0.11737071758E+04  0.11737071758E+04  0.00000000000E+00 0.  1.
      99925    2    1    2    0    0  0.48985951706E+02 -0.13211620330E+03 -0.67465155648E+03  0.73773862039E+03  0.26315249326E+03 0.  0.
         25    1    3    3    0    0 -0.16411113857E+02 -0.69562847927E+02 -0.33172071204E+03  0.36165515808E+03  0.12509000000E+03 0.  0.
         25    1    3    3    0    0  0.65397065562E+02 -0.62553355373E+02 -0.34293084444E+03  0.37608346230E+03  0.12509000000E+03 0.  0.
         25    1    1    2    0    0 -0.48985951706E+02  0.13211620330E+03 -0.44852764632E+03  0.48649652851E+03  0.12509000000E+03 0.  0.
<mgrwt>
<rscale>  2 0.48705254E+03</rscale>
<asrwt>0</asrwt>
<pdfrwt beam="1">  1       21 0.74305834E-02 0.48705254E+03</pdfrwt>
<pdfrwt beam="2">  1       21 0.17260402E+00 0.48705254E+03</pdfrwt>
<totfact> 0.24645363E+04</totfact>
</mgrwt>
</event>
<event>
 6    0  0.1539497E-004  0.3998316E+03  0.7546771E-02  0.1043838E+00
         21   -1    0    0  502  501  0.00000000000E+00  0.00000000000E+00  0.42414760498E+02  0.42414760498E+02  0.00000000000E+00 0.  1.
         21   -1    0    0  501  502 -0.00000000000E+00 -0.00000000000E+00 -0.94227383823E+03  0.94227383823E+03  0.00000000000E+00 0.  1.
      99925    2    1    2    0    0 -0.40114360565E+01  0.27157470956E+01 -0.71150606420E+03  0.75852973264E+03  0.26287451191E+03 0.  0.
         25    1    3    3    0    0  0.22468645745E+02 -0.62564687122E+01 -0.44445176084E+03  0.46230818645E+03  0.12509000000E+03 0.  0.
         25    1    3    3    0    0 -0.26480081802E+02  0.89722158078E+01 -0.26705430336E+03  0.29622154620E+03  0.12509000000E+03 0.  0.
         25    1    1    2    0    0  0.40114360565E+01 -0.27157470956E+01 -0.18835301354E+03  0.22615886609E+03  0.12509000000E+03 0.  0.
<mgrwt>
<rscale>  2 0.39983156E+03</rscale>
<asrwt>0</asrwt>
<pdfrwt beam="1">  1       21 0.62374654E-02 0.39983156E+03</pdfrwt>
<pdfrwt beam="2">  1       21 0.13856967E+00 0.39983156E+03</pdfrwt>
<totfact> 0.62760586E+04</totfact>
</mgrwt>
</event>
<event>
 6    0  0.1539497E-004  0.4021988E+03  0.7546771E-02  0.1043021E+00
         21   -1    0    0  502  501  0.00000000000E+00  0.00000000000E+00  0.52439154378E+03  0.52439154378E+03  0.00000000000E+00 0.  1.
         21   -1    0    0  501  502 -0.00000000000E+00 -0.00000000000E+00 -0.77119803560E+02  0.77119803560E+02  0.00000000000E+00 0.  1.
      99925    2    1    2    0    0 -0.37863006128E+02  0.13663788885E+01  0.34567078207E+03  0.43596456537E+03  0.26294740626E+03 0.  0.
         25    1    3    3    0    0 -0.17473438744E+02 -0.39759683181E+02  0.17311078785E+03  0.21794725609E+03  0.12509000000E+03 0.  0.
         25    1    3    3    0    0 -0.20389567384E+02  0.41126062070E+02  0.17255999422E+03  0.21801730928E+03  0.12509000000E+03 0.  0.
         25    1    1    2    0    0  0.37863006128E+02 -0.13663788885E+01  0.10160095816E+03  0.16554678198E+03  0.12509000000E+03 0.  0.
<mgrwt>
<rscale>  2 0.40219882E+03</rscale>
<asrwt>0</asrwt>
<pdfrwt beam="1">  1       21 0.77116402E-01 0.40219882E+03</pdfrwt>
<pdfrwt beam="2">  1       21 0.11341148E-01 0.40219882E+03</pdfrwt>
<totfact> 0.90995329E+04</totfact>
</mgrwt>
</event>
<event>
 6    0  0.1539497E-004  0.4829035E+03  0.7546771E-02  0.1018340E+00
         21   -1    0    0  502  501  0.00000000000E+00  0.00000000000E+00  0.95024392245E+02  0.95024392245E+02  0.00000000000E+00 0.  1.
         21   -1    0    0  501  502 -0.00000000000E+00 -0.00000000000E+00 -0.61351556639E+03  0.61351556639E+03  0.00000000000E+00 0.  1.
      99925    2    1    2    0    0 -0.59807930776E+02  0.18793145844E+01 -0.50066349060E+03  0.56873346805E+03  0.26308421932E+03 0.  0.
         25    1    3    3    0    0 -0.34060196088E+02 -0.39520097724E+02 -0.24856621427E+03  0.28311588803E+03  0.12509000000E+03 0.  0.
         25    1    3    3    0    0 -0.25747734688E+02  0.41399412308E+02 -0.25209727634E+03  0.28561758002E+03  0.12509000000E+03 0.  0.
         25    1    1    2    0    0  0.59807930776E+02 -0.18793145844E+01 -0.17827683538E+02  0.13980649058E+03  0.12509000000E+03 0.  0.
<mgrwt>
<rscale>  2 0.48290348E+03</rscale>
<asrwt>0</asrwt>
<pdfrwt beam="1">  1       21 0.13974176E-01 0.48290348E+03</pdfrwt>
<pdfrwt beam="2">  1       21 0.90222876E-01 0.48290348E+03</pdfrwt>
<totfact> 0.42344083E+04</totfact>
</mgrwt>
</event>
<event>
 6    0  0.1539497E-004  0.4331263E+03  0.7546771E-02  0.1032877E+00
         21   -1    0    0  502  501  0.00000000000E+00  0.00000000000E+00  0.23074925518E+03  0.23074925518E+03  0.00000000000E+00 0. -1.
         21   -1    0    0  501  502 -0.00000000000E+00 -0.00000000000E+00 -0.20324918338E+03  0.20324918338E+03  0.00000000000E+00 0. -1.
      99925    2    1    2    0    0 -0.72860127389E+02  0.37146634619E+01 -0.37269787588E+02  0.27536351280E+03  0.26289471320E+03 0.  0.
         25    1    3    3    0    0 -0.97947047975E+01  0.12777053247E+02  0.11754454022E+02  0.12666832525E+03  0.12509000000E+03 0.  0.
         25    1    3    3    0    0 -0.63065422592E+02 -0.90623897850E+01 -0.49024241610E+02  0.14869518755E+03  0.12509000000E+03 0.  0.
         25    1    1    2    0    0  0.72860127389E+02 -0.37146634619E+01  0.64769859385E+02  0.15863492577E+03  0.12509000000E+03 0.  0.
<mgrwt>
<rscale>  2 0.43312630E+03</rscale>
<asrwt>0</asrwt>
<pdfrwt beam="1">  1       21 0.33933714E-01 0.43312630E+03</pdfrwt>
<pdfrwt beam="2">  1       21 0.29889586E-01 0.43312630E+03</pdfrwt>
<totfact> 0.83812413E+04</totfact>
</mgrwt>
</event>
<event>
 6    0  0.1539497E-004  0.4782306E+03  0.7546771E-02  0.1019623E+00
         21   -1    0    0  502  501  0.00000000000E+00  0.00000000000E+00  0.27299359778E+03  0.27299359778E+03  0.00000000000E+00 0. -1.
         21   -1    0    0  501  502 -0.00000000000E+00 -0.00000000000E+00 -0.20944130652E+03  0.20944130652E+03  0.00000000000E+00 0. -1.
      99925    2    1    2    0    0  0.57172072792E+02 -0.78845954908E+02  0.13183669394E+03  0.30982088905E+03  0.26291203645E+03 0.  0.
         25    1    3    3    0    0  0.17432666194E+02 -0.36759669807E+02  0.10744881436E+03  0.16984677501E+03  0.12509000000E+03 0.  0.
         25    1    1    2    0    0 -0.57172072792E+02  0.78845954908E+02 -0.68284402677E+02  0.17261401525E+03  0.12509000000E+03 0.  0.
         25    1    3    3    0    0  0.39739406598E+02 -0.42086285101E+02  0.24387879580E+02  0.13997411404E+03  0.12509000000E+03 0.  0.
<mgrwt>
<rscale>  2 0.47823064E+03</rscale>
<asrwt>0</asrwt>
<pdfrwt beam="1">  1       21 0.40146117E-01 0.47823064E+03</pdfrwt>
<pdfrwt beam="2">  1       21 0.30800192E-01 0.47823064E+03</pdfrwt>
<totfact> 0.55546768E+04</totfact>
</mgrwt>
</event>
<event>
 6    0  0.1539497E-004  0.4112334E+03  0.7546771E-02  0.1039958E+00
         21   -1    0    0  502  501  0.00000000000E+00  0.00000000000E+00  0.10503175084E+04  0.10503175084E+04  0.00000000000E+00 0.  1.
         21   -1    0    0  501  502 -0.00000000000E+00 -0.00000000000E+00 -0.40252799440E+02  0.40252799440E+02  0.00000000000E+00 0.  1.
      99925    2    1    2    0    0 -0.42399615684E+02  0.18711681714E+02  0.78229041841E+03  0.82660726122E+03  0.26297036169E+03 0.  0.
         25    1    1    2    0    0  0.42399615684E+02 -0.18711681714E+02  0.22777429055E+03  0.26396304661E+03  0.12509000000E+03 0.  0.
         25    1    3    3    0    0 -0.31224700074E+02  0.24025310237E+02  0.51180129963E+03  0.52833727469E+03  0.12509000000E+03 0.  0.
         25    1    3    3    0    0 -0.11174915609E+02 -0.53136285235E+01  0.27048911878E+03  0.29826998653E+03  0.12509000000E+03 0.  0.
<mgrwt>
<rscale>  2 0.41123336E+03</rscale>
<asrwt>0</asrwt>
<pdfrwt beam="1">  1       21 0.15445844E+00 0.41123336E+03</pdfrwt>
<pdfrwt beam="2">  1       21 0.59195300E-02 0.41123336E+03</pdfrwt>
<totfact> 0.51192723E+04</totfact>
</mgrwt>
</event>
<event>
 6    0  0.1539497E-004  0.5143806E+03  0.7546771E-02  0.1010092E+00
         21   -1    0    0  502  501  0.00000000000E+00  0.00000000000E+00  0.89570354273E+02  0.89570354273E+02  0.00000000000E+00 0. -1.
         21   -1    0    0  501  502 -0.00000000000E+00 -0.00000000000E+00 -0.73849034197E+03  0.73849034197E+03  0.00000000000E+00 0. -1.
      99925    2    1    2    0    0  0.67253382701E+01  0.73845486259E+02 -0.62305760163E+03  0.68036250015E+03  0.26304746842E+03 0.  0.
         25    1    3    3    0    0  0.42982600248E+02  0.34626257698E+02 -0.33405324623E+03  0.36095091226E+03  0.12509000000E+03 0.  0.
         25    1    3    3    0    0 -0.36257261978E+02  0.39219228561E+02 -0.28900435540E+03  0.31941158789E+03  0.12509000000E+03 0.  0.
         25    1    1    2    0    0 -0.67253382701E+01 -0.73845486259E+02 -0.25862386061E+02  0.14769819609E+03  0.12509000000E+03 0.  0.
<mgrwt>
<rscale>  2 0.51438057E+03</rscale>
<asrwt>0</asrwt>
<pdfrwt beam="1">  1       21 0.13172111E-01 0.51438057E+03</pdfrwt>
<pdfrwt beam="2">  1       21 0.10860152E+00 0.51438057E+03</pdfrwt>
<totfact> 0.29885342E+04</totfact>
</mgrwt>
</event>
<event>
 6    0  0.1539497E-004  0.4013730E+03  0.7546771E-02  0.1043305E+00
         21   -1    0    0  502  501  0.00000000000E+00  0.00000000000E+00  0.41544652249E+02  0.41544652249E+02  0.00000000000E+00 0. -1.
         21   -1    0    0  501  502 -0.00000000000E+00 -0.00000000000E+00 -0.96944070148E+03  0.96944070148E+03  0.00000000000E+00 0. -1.
      99925    2    1    2    0    0  0.10968888966E+02 -0.34973331500E+02 -0.54084150653E+03  0.60257113071E+03  0.26313301187E+03 0.  0.
         25    1    3    3    0    0 -0.35029158266E+02 -0.16832185192E+02 -0.27784699752E+03  0.30717556302E+03  0.12509000000E+03 0.  0.
         25    1    3    3    0    0  0.45998047232E+02 -0.18141146308E+02 -0.26299450901E+03  0.29539556768E+03  0.12509000000E+03 0.  0.
         25    1    1    2    0    0 -0.10968888966E+02  0.34973331500E+02 -0.38705454270E+03  0.40841422302E+03  0.12509000000E+03 0.  0.
<mgrwt>
<rscale>  2 0.40137303E+03</rscale>
<asrwt>0</asrwt>
<pdfrwt beam="1">  1       21 0.61095068E-02 0.40137303E+03</pdfrwt>
<pdfrwt beam="2">  1       21 0.14256483E+00 0.40137303E+03</pdfrwt>
<totfact> 0.60312666E+04</totfact>
</mgrwt>
</event>
<event>
 5    0  0.1920757E-004  0.4286126E+03  0.7546771E-02  0.1034299E+00
         21   -1    0    0  502  501  0.00000000000E+00  0.00000000000E+00  0.14517389729E+03  0.14517389729E+03  0.00000000000E+00 0. -1.
         21   -1    0    0  501  502 -0.00000000000E+00 -0.00000000000E+00 -0.31635980417E+03  0.31635980417E+03  0.00000000000E+00 0. -1.
         25    1    1    2    0    0 -0.27761820121E+02  0.50414607296E+02 -0.65218639029E+02  0.15235921456E+03  0.12509000000E+03 0.  0.
         25    1    1    2    0    0 -0.53265003910E+01 -0.16497502992E+02  0.17065620310E+02  0.12743344423E+03  0.12509000000E+03 0.  0.
         25    1    1    2    0    0  0.33088320512E+02 -0.33917104304E+02 -0.12303288817E+03  0.18174104267E+03  0.12509000000E+03 0.  0.
<mgrwt>
<rscale>  2 0.42861258E+03</rscale>
<asrwt>0</asrwt>
<pdfrwt beam="1">  1       21 0.21349103E-01 0.42861258E+03</pdfrwt>
<pdfrwt beam="2">  1       21 0.46523501E-01 0.42861258E+03</pdfrwt>
<totfact> 0.84410064E+04</totfact>
</mgrwt>
</event>
<event>
 6    0  0.1548587E-004  0.4014977E+03  0.7546771E-02  0.1043262E+00
         21   -1    0    0  502  501  0.00000000000E+00  0.00000000000E+00  0.25632998388E+03  0.25632998388E+03  0.00000000000E+00 0.  1.
         21   -1    0    0  501  502 -0.00000000000E+00 -0.00000000000E+00 -0.15721964234E+03  0.15721964234E+03  0.00000000000E+00 0.  1.
      99925    2    1    2    0    0  0.20404326499E+02 -0.32253265269E+02  0.35671532346E+02  0.26819282290E+03  0.26305574005E+03 0.  0.
         25    1    1    2    0    0 -0.20404326499E+02  0.32253265269E+02  0.63438809191E+02  0.14535680332E+03  0.12509000000E+03 0.  0.
         25    1    3    3    0    0 -0.23376775601E+02 -0.39028634428E+02  0.18122373592E+02  0.13433404806E+03  0.12509000000E+03 0.  0.
         25    1    3    3    0    0  0.43781102100E+02  0.67753691590E+01  0.17549158754E+02  0.13385877484E+03  0.12509000000E+03 0.  0.
<mgrwt>
<rscale>  2 0.40149774E+03</rscale>
<asrwt>0</asrwt>
<pdfrwt beam="1">  1       21 0.37695586E-01 0.40149774E+03</pdfrwt>
<pdfrwt beam="2">  1       21 0.23120535E-01 0.40149774E+03</pdfrwt>
<totfact> 0.11258178E+05</totfact>
</mgrwt>
</event>
<event>
 6    0  0.1539497E-004  0.4637863E+03  0.7546771E-02  0.1023689E+00
         21   -1    0    0  502  501  0.00000000000E+00  0.00000000000E+00  0.33576671038E+03  0.33576671038E+03  0.00000000000E+00 0.  1.
         21   -1    0    0  501  502 -0.00000000000E+00 -0.00000000000E+00 -0.16015417781E+03  0.16015417781E+03  0.00000000000E+00 0.  1.
      99925    2    1    2    0    0 -0.96533699607E+02 -0.68326482207E+02  0.13810152579E+03  0.31973392198E+03  0.26300282529E+03 0.  0.
         25    1    1    2    0    0  0.96533699607E+02  0.68326482207E+02  0.37511006784E+02  0.17618696621E+03  0.12509000000E+03 0.  0.
         25    1    3    3    0    0 -0.32022661559E+02 -0.24880714835E+02  0.24603556058E+02  0.13378095490E+03  0.12509000000E+03 0.  0.
         25    1    3    3    0    0 -0.64511038048E+02 -0.43445767372E+02  0.11349796973E+03  0.18595296708E+03  0.12509000000E+03 0.  0.
<mgrwt>
<rscale>  2 0.46378634E+03</rscale>
<asrwt>0</asrwt>
<pdfrwt beam="1">  1       21 0.49377457E-01 0.46378634E+03</pdfrwt>
<pdfrwt beam="2">  1       21 0.23552085E-01 0.46378634E+03</pdfrwt>
<totfact> 0.61178263E+04</totfact>
</mgrwt>
</event>
<event>
 6    0  0.1539497E-004  0.4420291E+03  0.7546771E-02  0.1030126E+00
         21   -1    0    0  502  501  0.00000000000E+00  0.00000000000E+00  0.15940358742E+03  0.15940358742E+03  0.00000000000E+00 0. -1.
         21   -1    0    0  501  502 -0.00000000000E+00 -0.00000000000E+00 -0.30643874446E+03  0.30643874446E+03  0.00000000000E+00 0. -1.
      99925    2    1    2    0    0 -0.82698131809E+02  0.40070706804E+02 -0.50505993834E+02  0.28305822426E+03  0.26291911372E+03 0.  0.
         25    1    1    2    0    0  0.82698131809E+02 -0.40070706804E+02 -0.96529163208E+02  0.18278410762E+03  0.12509000000E+03 0.  0.
         25    1    3    3    0    0 -0.58643012884E+02  0.27462804914E+02 -0.63279127678E+02  0.15441814891E+03  0.12509000000E+03 0.  0.
         25    1    3    3    0    0 -0.24055118925E+02  0.12607901891E+02  0.12773133844E+02  0.12864007535E+03  0.12509000000E+03 0.  0.
<mgrwt>
<rscale>  2 0.44202912E+03</rscale>
<asrwt>0</asrwt>
<pdfrwt beam="1">  1       21 0.23441704E-01 0.44202912E+03</pdfrwt>
<pdfrwt beam="2">  1       21 0.45064521E-01 0.44202912E+03</pdfrwt>
<totfact> 0.75192288E+04</totfact>
</mgrwt>
</event>
<event>
 6    0  0.1539497E-004  0.4286624E+03  0.7546771E-02  0.1034283E+00
         21   -1    0    0  502  501  0.00000000000E+00  0.00000000000E+00  0.28559915497E+02  0.28559915497E+02  0.00000000000E+00 0. -1.
         21   -1    0    0  501  502 -0.00000000000E+00 -0.00000000000E+00 -0.16084731002E+04  0.16084731002E+04  0.00000000000E+00 0. -1.
      99925    2    1    2    0    0  0.44893361759E+02 -0.61680008384E+02 -0.86632629913E+03  0.90855955103E+03  0.26294365145E+03 0.  0.
         25    1    3    3    0    0  0.13010051947E+02 -0.44822382382E+02 -0.31606405327E+03  0.34310683654E+03  0.12509000000E+03 0.  0.
         25    1    3    3    0    0  0.31883309812E+02 -0.16857626002E+02 -0.55026224586E+03  0.56545271448E+03  0.12509000000E+03 0.  0.
         25    1    1    2    0    0 -0.44893361759E+02  0.61680008384E+02 -0.71358688559E+03  0.72847346469E+03  0.12509000000E+03 0.  0.
<mgrwt>
<rscale>  2 0.42866237E+03</rscale>
<asrwt>0</asrwt>
<pdfrwt beam="1">  1       21 0.41999860E-02 0.42866237E+03</pdfrwt>
<pdfrwt beam="2">  1       21 0.23654025E+00 0.42866237E+03</pdfrwt>
<totfact> 0.25420317E+04</totfact>
</mgrwt>
</event>
<event>
 6    0  0.1539497E-004  0.4119270E+03  0.7546771E-02  0.1039726E+00
         21   -1    0    0  502  501  0.00000000000E+00  0.00000000000E+00  0.12892896707E+04  0.12892896707E+04  0.00000000000E+00 0. -1.
         21   -1    0    0  501  502 -0.00000000000E+00 -0.00000000000E+00 -0.32902580159E+02  0.32902580159E+02  0.00000000000E+00 0. -1.
      99925    2    1    2    0    0  0.15343601839E+02 -0.30173788598E+02  0.64708447215E+03  0.69926121735E+03  0.26287269229E+03 0.  0.
         25    1    3    3    0    0  0.10636106376E+02  0.14535293249E+02  0.24337960379E+03  0.27423628708E+03  0.12509000000E+03 0.  0.
         25    1    1    2    0    0 -0.15343601839E+02  0.30173788598E+02  0.60930261840E+03  0.62293103352E+03  0.12509000000E+03 0.  0.
         25    1    3    3    0    0  0.47074954625E+01 -0.44709081847E+02  0.40370486836E+03  0.42502493027E+03  0.12509000000E+03 0.  0.
<mgrwt>
<rscale>  2 0.41192697E+03</rscale>
<asrwt>0</asrwt>
<pdfrwt beam="1">  1       21 0.18960139E+00 0.41192697E+03</pdfrwt>
<pdfrwt beam="2">  1       21 0.48386156E-02 0.41192697E+03</pdfrwt>
<totfact> 0.40410536E+04</totfact>
</mgrwt>
</event>
<event>
 6    0  0.1539497E-004  0.4416760E+03  0.7546771E-02  0.1030234E+00
         21   -1    0    0  502  501  0.00000000000E+00  0.00000000000E+00  0.14429002316E+03  0.14429002316E+03  0.00000000000E+00 0. -1.
         21   -1    0    0  501  502 -0.00000000000E+00 -0.00000000000E+00 -0.33799576695E+03  0.33799576695E+03  0.00000000000E+00 0. -1.
      99925    2    1    2    0    0 -0.78821131324E+02  0.41811867853E+02 -0.73854894735E+02  0.28741984348E+03  0.26304869875E+03 0.  0.
         25    1    3    3    0    0 -0.80058823135E+02  0.11326927334E+02 -0.36511927814E+02  0.15335691513E+03  0.12509000000E+03 0.  0.
         25    1    3    3    0    0  0.12376918106E+01  0.30484940518E+02 -0.37342966921E+02  0.13406292835E+03  0.12509000000E+03 0.  0.
         25    1    1    2    0    0  0.78821131324E+02 -0.41811867853E+02 -0.11985084905E+03  0.19486594663E+03  0.12509000000E+03 0.  0.
<mgrwt>
<rscale>  2 0.44167598E+03</rscale>
<asrwt>0</asrwt>
<pdfrwt beam="1">  1       21 0.21219122E-01 0.44167598E+03</pdfrwt>
<pdfrwt beam="2">  1       21 0.49705259E-01 0.44167598E+03</pdfrwt>
<totfact> 0.74063482E+04</totfact>
</mgrwt>
</event>
<event>
 6    0  0.1539497E-004  0.4659445E+03  0.7546771E-02  0.1023071E+00
         21   -1    0    0  502  501  0.00000000000E+00  0.00000000000E+00  0.44639719025E+03  0.44639719025E+03  0.00000000000E+00 0.  1.
         21   -1    0    0  501  502 -0.00000000000E+00 -0.00000000000E+00 -0.12158695763E+03  0.12158695763E+03  0.00000000000E+00 0.  1.
      99925    2    1    2    0    0  0.96240698525E+02 -0.50601194294E+02  0.27291594981E+03  0.39430836486E+03  0.26300801894E+03 0.  0.
         25    1    3    3    0    0  0.21999143533E+02 -0.15741991418E+02  0.16979780987E+03  0.21262778968E+03  0.12509000000E+03 0.  0.
         25    1    1    2    0    0 -0.96240698525E+02  0.50601194294E+02  0.51894282812E+02  0.17367578301E+03  0.12509000000E+03 0.  0.
         25    1    3    3    0    0  0.74241554992E+02 -0.34859202875E+02  0.10311813994E+03  0.18168057518E+03  0.12509000000E+03 0.  0.
<mgrwt>
<rscale>  2 0.46594453E+03</rscale>
<asrwt>0</asrwt>
<pdfrwt beam="1">  1       21 0.65646645E-01 0.46594453E+03</pdfrwt>
<pdfrwt beam="2">  1       21 0.17880435E-01 0.46594453E+03</pdfrwt>
<totfact> 0.55712450E+04</totfact>
</mgrwt>
</event>
<event>
 6    0  0.1539497E-004  0.4034871E+03  0.7546771E-02  0.1042579E+00
         21   -1    0    0  502  501  0.00000000000E+00  0.00000000000E+00  0.18470076450E+03  0.18470076450E+03  0.00000000000E+00 0. -1.
         21   -1    0    0  501  502 -0.00000000000E+00 -0.00000000000E+00 -0.22035895213E+03  0.22035895213E+03  0.00000000000E+00 0. -1.
      99925    2    1    2    0    0  0.40037051281E+02 -0.29762419369E+01  0.90686972681E+01  0.26627994209E+03  0.26307972707E+03 0.  0.
         25    1    3    3    0    0  0.15081520304E+02 -0.29320068398E+02 -0.24762037867E+02  0.13171099151E+03  0.12509000000E+03 0.  0.
         25    1    1    2    0    0 -0.40037051281E+02  0.29762419369E+01 -0.44726884895E+02  0.13877977455E+03  0.12509000000E+03 0.  0.
         25    1    3    3    0    0  0.24955530977E+02  0.26343826461E+02  0.33830735135E+02  0.13456895057E+03  0.12509000000E+03 0.  0.
<mgrwt>
<rscale>  2 0.40348713E+03</rscale>
<asrwt>0</asrwt>
<pdfrwt beam="1">  1       21 0.27161877E-01 0.40348713E+03</pdfrwt>
<pdfrwt beam="2">  1       21 0.32405728E-01 0.40348713E+03</pdfrwt>
<totfact> 0.11168750E+05</totfact>
</mgrwt>
</event>
<event>
 6    0  0.1539497E-004  0.4115887E+03  0.7546771E-02  0.1039839E+00
         21   -1    0    0  502  501  0.00000000000E+00  0.00000000000E+00  0.50028818383E+03  0.50028818383E+03  0.00000000000E+00 0. -1.
         21   -1    0    0  501  502 -0.00000000000E+00 -0.00000000000E+00 -0.84653839848E+02  0.84653839848E+02  0.00000000000E+00 0. -1.
      99925    2    1    2    0    0  0.77603366599E+01 -0.50497362574E+01  0.36419318492E+03  0.44937129082E+03  0.26308203742E+03 0.  0.
         25    1    3    3    0    0 -0.31044482581E+02 -0.17974691524E+02  0.15708376145E+03  0.20398447403E+03  0.12509000000E+03 0.  0.
         25    1    3    3    0    0  0.38804819241E+02  0.12924955267E+02  0.20710942348E+03  0.24538681680E+03  0.12509000000E+03 0.  0.
         25    1    1    2    0    0 -0.77603366599E+01  0.50497362574E+01  0.51441159060E+02  0.13557073285E+03  0.12509000000E+03 0.  0.
<mgrwt>
<rscale>  2 0.41158871E+03</rscale>
<asrwt>0</asrwt>
<pdfrwt beam="1">  1       21 0.73571791E-01 0.41158871E+03</pdfrwt>
<pdfrwt beam="2">  1       21 0.12449094E-01 0.41158871E+03</pdfrwt>
<totfact> 0.85332868E+04</totfact>
</mgrwt>
</event>
<event>
 6    0  0.1539497E-004  0.4039752E+03  0.7546771E-02  0.1042412E+00
         21   -1    0    0  502  501  0.00000000000E+00  0.00000000000E+00  0.10065269768E+03  0.10065269768E+03  0.00000000000E+00 0.  1.
         21   -1    0    0  501  502 -0.00000000000E+00 -0.00000000000E+00 -0.40534418450E+03  0.40534418450E+03  0.00000000000E+00 0.  1.
      99925    2    1    2    0    0 -0.18326209961E+02  0.33027048971E+02 -0.24890023427E+03  0.36391659538E+03  0.26278760595E+03 0.  0.
         25    1    3    3    0    0 -0.43376372213E+02  0.30711145446E+02 -0.15049664123E+03  0.20278419870E+03  0.12509000000E+03 0.  0.
         25    1    1    2    0    0  0.18326209961E+02 -0.33027048971E+02 -0.55791252553E+02  0.14208028680E+03  0.12509000000E+03 0.  0.
         25    1    3    3    0    0  0.25050162252E+02  0.23159035253E+01 -0.98403593042E+02  0.16113239669E+03  0.12509000000E+03 0.  0.
<mgrwt>
<rscale>  2 0.40397518E+03</rscale>
<asrwt>0</asrwt>
<pdfrwt beam="1">  1       21 0.14801867E-01 0.40397518E+03</pdfrwt>
<pdfrwt beam="2">  1       21 0.59609438E-01 0.40397518E+03</pdfrwt>
<totfact> 0.99334948E+04</totfact>
</mgrwt>
</event>
<event>
 6    0  0.1539497E-004  0.4317784E+03  0.7546771E-02  0.1033300E+00
         21   -1    0    0  502  501  0.00000000000E+00  0.00000000000E+00  0.11203243404E+03  0.11203243404E+03  0.00000000000E+00 0. -1.
         21   -1    0    0  501  502 -0.00000000000E+00 -0.00000000000E+00 -0.41602368103E+03  0.41602368103E+03  0.00000000000E+00 0. -1.
      99925    2    1    2    0    0 -0.60761751948E+02  0.52680426454E+02 -0.14711276262E+03  0.31189509919E+03  0.26300032346E+03 0.  0.
         25    1    1    2    0    0  0.60761751948E+02 -0.52680426454E+02 -0.15687848437E+03  0.21616101589E+03  0.12509000000E+03 0.  0.
         25    1    3    3    0    0 -0.70789797632E+02  0.38026255838E+02 -0.79706641124E+02  0.16869454147E+03  0.12509000000E+03 0.  0.
         25    1    3    3    0    0  0.10028045684E+02  0.14654170616E+02 -0.67406121495E+02  0.14320055772E+03  0.12509000000E+03 0.  0.
<mgrwt>
<rscale>  2 0.43177840E+03</rscale>
<asrwt>0</asrwt>
<pdfrwt beam="1">  1       21 0.16475358E-01 0.43177840E+03</pdfrwt>
<pdfrwt beam="2">  1       21 0.61179952E-01 0.43177840E+03</pdfrwt>
<totfact> 0.76455037E+04</totfact>
</mgrwt>
</event>
<event>
 6    0  0.1539497E-004  0.6827261E+03  0.7546771E-02  0.9747237E-01
         21   -1    0    0  502  501  0.00000000000E+00  0.00000000000E+00  0.24632282678E+03  0.24632282678E+03  0.00000000000E+00 0. -1.
         21   -1    0    0  501  502 -0.00000000000E+00 -0.00000000000E+00 -0.47307325016E+03  0.47307325016E+03  0.00000000000E+00 0. -1.
      99925    2    1    2    0    0 -0.16555988666E+03 -0.12531903592E+03  0.63715757615E+02  0.34106679280E+03  0.26296753135E+03 0.  0.
         25    1    3    3    0    0 -0.11045354811E+03 -0.37469462368E+02  0.16310335889E+02  0.17180652507E+03  0.12509000000E+03 0.  0.
         25    1    1    2    0    0  0.16555988666E+03  0.12531903592E+03 -0.29046618100E+03  0.37832928414E+03  0.12509000000E+03 0.  0.
         25    1    3    3    0    0 -0.55106338545E+02 -0.87849573548E+02  0.47405421726E+02  0.16926026772E+03  0.12509000000E+03 0.  0.
<mgrwt>
<rscale>  2 0.68272612E+03</rscale>
<asrwt>0</asrwt>
<pdfrwt beam="1">  1       21 0.36223945E-01 0.68272612E+03</pdfrwt>
<pdfrwt beam="2">  1       21 0.69569595E-01 0.68272612E+03</pdfrwt>
<totfact> 0.11729052E+04</totfact>
</mgrwt>
</event>
<event>
 6    0  0.1539497E-004  0.3940611E+03  0.7546771E-02  0.1045856E+00
         21   -1    0    0  502  501  0.00000000000E+00  0.00000000000E+00  0.52790398989E+02  0.52790398989E+02  0.00000000000E+00 0.  1.
         21   -1    0    0  501  502 -0.00000000000E+00 -0.00000000000E+00 -0.73538052607E+03  0.73538052607E+03  0.00000000000E+00 0.  1.
      99925    2    1    2    0    0  0.40292135563E+01  0.32005696541E+02 -0.46204154148E+03  0.53257400434E+03  0.26289177406E+03 0.  0.
         25    1    1    2    0    0 -0.40292135563E+01 -0.32005696541E+02 -0.22054858560E+03  0.25559692072E+03  0.12509000000E+03 0.  0.
         25    1    3    3    0    0  0.14709438040E+02  0.29039034246E+02 -0.30667499818E+03  0.33280128558E+03  0.12509000000E+03 0.  0.
         25    1    3    3    0    0 -0.10680224484E+02  0.29666622954E+01 -0.15536654330E+03  0.19977271875E+03  0.12509000000E+03 0.  0.
<mgrwt>
<rscale>  2 0.39406107E+03</rscale>
<asrwt>0</asrwt>
<pdfrwt beam="1">  1       21 0.77632951E-02 0.39406107E+03</pdfrwt>
<pdfrwt beam="2">  1       21 0.10814418E+00 0.39406107E+03</pdfrwt>
<totfact> 0.80461583E+04</totfact>
</mgrwt>
</event>
<event>
 6    0  0.1539497E-004  0.4118614E+03  0.7546771E-02  0.1039748E+00
         21   -1    0    0  502  501  0.00000000000E+00  0.00000000000E+00  0.47359676723E+03  0.47359676723E+03  0.00000000000E+00 0.  1.
         21   -1    0    0  501  502 -0.00000000000E+00 -0.00000000000E+00 -0.89543365842E+02  0.89543365842E+02  0.00000000000E+00 0.  1.
      99925    2    1    2    0    0 -0.58709259847E+02 -0.24629589725E+02  0.27132281294E+03  0.38311489164E+03  0.26288316320E+03 0.  0.
         25    1    3    3    0    0 -0.26822207114E+02  0.10615303551E+02  0.85950301477E+02  0.15448973392E+03  0.12509000000E+03 0.  0.
         25    1    1    2    0    0  0.58709259847E+02  0.24629589725E+02  0.11273058845E+03  0.18002524144E+03  0.12509000000E+03 0.  0.
         25    1    3    3    0    0 -0.31887052733E+02 -0.35244893277E+02  0.18537251146E+03  0.22862515771E+03  0.12509000000E+03 0.  0.
<mgrwt>
<rscale>  2 0.41186138E+03</rscale>
<asrwt>0</asrwt>
<pdfrwt beam="1">  1       21 0.69646583E-01 0.41186138E+03</pdfrwt>
<pdfrwt beam="2">  1       21 0.13168142E-01 0.41186138E+03</pdfrwt>
<totfact> 0.87144884E+04</totfact>
</mgrwt>
</event>
<event>
 6    0  0.1539497E-004  0.6541293E+03  0.7546771E-02  0.9799062E-01
         21   -1    0    0  502  501  0.00000000000E+00  0.00000000000E+00  0.50302157293E+03  0.50302157293E+03  0.00000000000E+00 0. -1.
         21   -1    0    0  501  502 -0.00000000000E+00 -0.00000000000E+00 -0.21265742640E+03  0.21265742640E+03  0.00000000000E+00 0. -1.
      99925    2    1    2    0    0  0.21053707240E+02 -0.25641620964E+03  0.15525702350E+03  0.39930268236E+03  0.26295504870E+03 0.  0.
         25    1    3    3    0    0 -0.14015051811E+02 -0.10469571390E+03  0.39414221490E+02  0.16840012809E+03  0.12509000000E+03 0.  0.
         25    1    3    3    0    0  0.35068759051E+02 -0.15172049574E+03  0.11584280201E+03  0.23090255427E+03  0.12509000000E+03 0.  0.
         25    1    1    2    0    0 -0.21053707240E+02  0.25641620964E+03  0.13510712303E+03  0.31637631698E+03  0.12509000000E+03 0.  0.
<mgrwt>
<rscale>  2 0.65412926E+03</rscale>
<asrwt>0</asrwt>
<pdfrwt beam="1">  1       21 0.73973761E-01 0.65412926E+03</pdfrwt>
<pdfrwt beam="2">  1       21 0.31273151E-01 0.65412926E+03</pdfrwt>
<totfact> 0.13814399E+04</totfact>
</mgrwt>
</event>
<event>
 6    0  0.1539497E-004  0.4116484E+03  0.7546771E-02  0.1039819E+00
         21   -1    0    0  502  501  0.00000000000E+00  0.00000000000E+00  0.10557493337E+03  0.10557493337E+03  0.00000000000E+00 0. -1.
         21   -1    0    0  501  502 -0.00000000000E+00 -0.00000000000E+00 -0.40126577788E+03  0.40126577788E+03  0.00000000000E+00 0. -1.
      99925    2    1    2    0    0  0.28750490134E+01 -0.20512326869E+02 -0.11853115671E+03  0.28898276546E+03  0.26274014189E+03 0.  0.
         25    1    3    3    0    0 -0.23045845008E+02 -0.61241844532E+01 -0.93577746047E+02  0.15802822299E+03  0.12509000000E+03 0.  0.
         25    1    1    2    0    0 -0.28750490134E+01  0.20512326869E+02 -0.17715968781E+03  0.21785794579E+03  0.12509000000E+03 0.  0.
         25    1    3    3    0    0  0.25920894021E+02 -0.14388142416E+02 -0.24953410662E+02  0.13095454247E+03  0.12509000000E+03 0.  0.
<mgrwt>
<rscale>  2 0.41164843E+03</rscale>
<asrwt>0</asrwt>
<pdfrwt beam="1">  1       21 0.15525725E-01 0.41164843E+03</pdfrwt>
<pdfrwt beam="2">  1       21 0.59009674E-01 0.41164843E+03</pdfrwt>
<totfact> 0.92805248E+04</totfact>
</mgrwt>
</event>
<event>
 6    0  0.1539497E-004  0.3955707E+03  0.7546771E-02  0.1045324E+00
         21   -1    0    0  502  501  0.00000000000E+00  0.00000000000E+00  0.17169618243E+02  0.17169618243E+02  0.00000000000E+00 0.  1.
         21   -1    0    0  501  502 -0.00000000000E+00 -0.00000000000E+00 -0.22783871519E+04  0.22783871519E+04  0.00000000000E+00 0.  1.
      99925    2    1    2    0    0 -0.17926930656E+02 -0.30700322007E+02 -0.15101485220E+04  0.15333126800E+04  0.26312607526E+03 0.  0.
         25    1    3    3    0    0  0.29478891549E+02 -0.24282674860E+02 -0.68668540067E+03  0.69903004294E+03  0.12509000000E+03 0.  0.
         25    1    1    2    0    0  0.17926930656E+02  0.30700322007E+02 -0.75106901165E+03  0.76224409015E+03  0.12509000000E+03 0.  0.
         25    1    3    3    0    0 -0.47405822205E+02 -0.64176471472E+01 -0.82346312136E+03  0.83428263707E+03  0.12509000000E+03 0.  0.
<mgrwt>
<rscale>  2 0.39557066E+03</rscale>
<asrwt>0</asrwt>
<pdfrwt beam="1">  1       21 0.25249436E-02 0.39557066E+03</pdfrwt>
<pdfrwt beam="2">  1       21 0.33505696E+00 0.39557066E+03</pdfrwt>
<totfact> 0.15461129E+04</totfact>
</mgrwt>
</event>
<event>
 6    0  0.1539497E-004  0.4620125E+03  0.7546771E-02  0.1024199E+00
         21   -1    0    0  502  501  0.00000000000E+00  0.00000000000E+00  0.20065674459E+03  0.20065674459E+03  0.00000000000E+00 0.  1.
         21   -1    0    0  501  502 -0.00000000000E+00 -0.00000000000E+00 -0.26594615535E+03  0.26594615535E+03  0.00000000000E+00 0.  1.
      99925    2    1    2    0    0 -0.85977401230E+02  0.76274899386E+02 -0.86581860371E+01  0.28753705308E+03  0.26342478796E+03 0.  0.
         25    1    1    2    0    0  0.85977401230E+02 -0.76274899386E+02 -0.56631224728E+02  0.17906584686E+03  0.12509000000E+03 0.  0.
         25    1    3    3    0    0 -0.80490856293E+01  0.30293385051E+02  0.20047682886E+02  0.13050630118E+03  0.12509000000E+03 0.  0.
         25    1    3    3    0    0 -0.77928315600E+02  0.45981514335E+02 -0.28705868923E+02  0.15703075190E+03  0.12509000000E+03 0.  0.
<mgrwt>
<rscale>  2 0.46201251E+03</rscale>
<asrwt>0</asrwt>
<pdfrwt beam="1">  1       21 0.29508345E-01 0.46201251E+03</pdfrwt>
<pdfrwt beam="2">  1       21 0.39109728E-01 0.46201251E+03</pdfrwt>
<totfact> 0.64044805E+04</totfact>
</mgrwt>
</event>
<event>
 6    0  0.1539497E-004  0.4377408E+03  0.7546771E-02  0.1031442E+00
         21   -1    0    0  502  501  0.00000000000E+00  0.00000000000E+00  0.13360611103E+03  0.13360611103E+03  0.00000000000E+00 0.  1.
         21   -1    0    0  501  502 -0.00000000000E+00 -0.00000000000E+00 -0.35854838327E+03  0.35854838327E+03  0.00000000000E+00 0.  1.
      99925    2    1    2    0    0  0.11708748675E+02  0.31928531499E+01 -0.36673024041E+02  0.26579171683E+03  0.26296965022E+03 0.  0.
         25    1    3    3    0    0  0.23260315641E+02  0.21977016155E+02 -0.49160724635E+02  0.13816047361E+03  0.12509000000E+03 0.  0.
         25    1    3    3    0    0 -0.11551566966E+02 -0.18784163005E+02  0.12487700595E+02  0.12763124322E+03  0.12509000000E+03 0.  0.
         25    1    1    2    0    0 -0.11708748675E+02 -0.31928531499E+01 -0.18826924820E+03  0.22636277747E+03  0.12509000000E+03 0.  0.
<mgrwt>
<rscale>  2 0.43774081E+03</rscale>
<asrwt>0</asrwt>
<pdfrwt beam="1">  1       21 0.19647958E-01 0.43774081E+03</pdfrwt>
<pdfrwt beam="2">  1       21 0.52727702E-01 0.43774081E+03</pdfrwt>
<totfact> 0.75673088E+04</totfact>
</mgrwt>
</event>
<event>
 6    0  0.1539497E-004  0.3965996E+03  0.7546771E-02  0.1044964E+00
         21   -1    0    0  502  501  0.00000000000E+00  0.00000000000E+00  0.23406222301E+03  0.23406222301E+03  0.00000000000E+00 0. -1.
         21   -1    0    0  501  502 -0.00000000000E+00 -0.00000000000E+00 -0.16800155241E+03  0.16800155241E+03  0.00000000000E+00 0. -1.
      99925    2    1    2    0    0  0.71147589349E+01 -0.35670066381E+02  0.32091953468E+02  0.26743704972E+03  0.26300134725E+03 0.  0.
         25    1    1    2    0    0 -0.71147589349E+01  0.35670066381E+02  0.33968717132E+02  0.13462672570E+03  0.12509000000E+03 0.  0.
         25    1    3    3    0    0  0.19436529634E+02  0.19038439255E+02  0.81224294360E+01  0.12827206560E+03  0.12509000000E+03 0.  0.
         25    1    3    3    0    0 -0.12321770699E+02 -0.54708505636E+02  0.23969524032E+02  0.13916498412E+03  0.12509000000E+03 0.  0.
<mgrwt>
<rscale>  2 0.39659963E+03</rscale>
<asrwt>0</asrwt>
<pdfrwt beam="1">  1       21 0.34420915E-01 0.39659963E+03</pdfrwt>
<pdfrwt beam="2">  1       21 0.24706110E-01 0.39659963E+03</pdfrwt>
<totfact> 0.11917728E+05</totfact>
</mgrwt>
</event>
<event>
 6    0  0.1539497E-004  0.4307843E+03  0.7546771E-02  0.1033612E+00
         21   -1    0    0  502  501  0.00000000000E+00  0.00000000000E+00  0.18016327463E+03  0.18016327463E+03  0.00000000000E+00 0. -1.
         21   -1    0    0  501  502 -0.00000000000E+00 -0.00000000000E+00 -0.25750967751E+03  0.25750967751E+03  0.00000000000E+00 0. -1.
      99925    2    1    2    0    0 -0.18281615606E+02  0.10591583093E+02  0.37582041856E+02  0.26649335460E+03  0.26298269729E+03 0.  0.
         25    1    3    3    0    0  0.14621931053E+02 -0.26223448323E+02  0.28107573512E+02  0.13167768945E+03  0.12509000000E+03 0.  0.
         25    1    3    3    0    0 -0.32903546659E+02  0.36815031416E+02  0.94744683438E+01  0.13481566516E+03  0.12509000000E+03 0.  0.
         25    1    1    2    0    0  0.18281615606E+02 -0.10591583093E+02 -0.11492844474E+03  0.17117959753E+03  0.12509000000E+03 0.  0.
<mgrwt>
<rscale>  2 0.43078434E+03</rscale>
<asrwt>0</asrwt>
<pdfrwt beam="1">  1       21 0.26494599E-01 0.43078434E+03</pdfrwt>
<pdfrwt beam="2">  1       21 0.37869070E-01 0.43078434E+03</pdfrwt>
<totfact> 0.85123749E+04</totfact>
</mgrwt>
</event>
<event>
 6    0  0.1539497E-004  0.4092666E+03  0.7546771E-02  0.1040617E+00
         21   -1    0    0  502  501  0.00000000000E+00  0.00000000000E+00  0.22708746958E+02  0.22708746958E+02  0.00000000000E+00 0.  1.
         21   -1    0    0  501  502 -0.00000000000E+00 -0.00000000000E+00 -0.18439941759E+04  0.18439941759E+04  0.00000000000E+00 0.  1.
      99925    2    1    2    0    0  0.36993561589E+02 -0.11800988233E+02 -0.98613711821E+03  0.10213461958E+04  0.26300921826E+03 0.  0.
         25    1    3    3    0    0 -0.60926301226E+01 -0.12106689766E+02 -0.60365201564E+03  0.61662545858E+03  0.12509000000E+03 0.  0.
         25    1    3    3    0    0  0.43086191711E+02  0.30570153289E+00 -0.38248510257E+03  0.40472073724E+03  0.12509000000E+03 0.  0.
         25    1    1    2    0    0 -0.36993561589E+02  0.11800988233E+02 -0.83514831068E+03  0.84535672698E+03  0.12509000000E+03 0.  0.
<mgrwt>
<rscale>  2 0.40926665E+03</rscale>
<asrwt>0</asrwt>
<pdfrwt beam="1">  1       21 0.33395205E-02 0.40926665E+03</pdfrwt>
<pdfrwt beam="2">  1       21 0.27117570E+00 0.40926665E+03</pdfrwt>
<totfact> 0.23224694E+04</totfact>
</mgrwt>
</event>
<event>
 6    0  0.1539497E-004  0.4146498E+03  0.7546771E-02  0.1038822E+00
         21   -1    0    0  502  501  0.00000000000E+00  0.00000000000E+00  0.13612493670E+03  0.13612493670E+03  0.00000000000E+00 0. -1.
         21   -1    0    0  501  502 -0.00000000000E+00 -0.00000000000E+00 -0.31576590157E+03  0.31576590157E+03  0.00000000000E+00 0. -1.
      99925    2    1    2    0    0 -0.79931370948E-02  0.69091653560E+02 -0.11597653300E+03  0.29544811828E+03  0.26280292565E+03 0.  0.
         25    1    1    2    0    0  0.79931370948E-02 -0.69091653560E+02 -0.63664431866E+02  0.15644272000E+03  0.12509000000E+03 0.  0.
         25    1    3    3    0    0  0.21617327134E+02  0.87722868429E+01 -0.30159395639E+02  0.13077216483E+03  0.12509000000E+03 0.  0.
         25    1    3    3    0    0 -0.21625320271E+02  0.60319366717E+02 -0.85817137364E+02  0.16467595345E+03  0.12509000000E+03 0.  0.
<mgrwt>
<rscale>  2 0.41464980E+03</rscale>
<asrwt>0</asrwt>
<pdfrwt beam="1">  1       21 0.20018373E-01 0.41464980E+03</pdfrwt>
<pdfrwt beam="2">  1       21 0.46436161E-01 0.41464980E+03</pdfrwt>
<totfact> 0.96080258E+04</totfact>
</mgrwt>
</event>
<event>
 6    0  0.1539497E-004  0.4007270E+03  0.7546771E-02  0.1043528E+00
         21   -1    0    0  502  501  0.00000000000E+00  0.00000000000E+00  0.43529160411E+03  0.43529160411E+03  0.00000000000E+00 0.  1.
         21   -1    0    0  501  502 -0.00000000000E+00 -0.00000000000E+00 -0.92226767100E+02  0.92226767100E+02  0.00000000000E+00 0.  1.
      99925    2    1    2    0    0 -0.38399543978E+02 -0.19658533935E+02  0.25153272857E+03  0.36662518332E+03  0.26321916451E+03 0.  0.
         25    1    1    2    0    0  0.38399543978E+02  0.19658533935E+02  0.91532108433E+02  0.16089318789E+03  0.12509000000E+03 0.  0.
         25    1    3    3    0    0 -0.40598997189E+02 -0.30137538007E+02  0.90622860336E+02  0.16253172209E+03  0.12509000000E+03 0.  0.
         25    1    3    3    0    0  0.21994532115E+01  0.10479004071E+02  0.16090986824E+03  0.20409346123E+03  0.12509000000E+03 0.  0.
<mgrwt>
<rscale>  2 0.40072703E+03</rscale>
<asrwt>0</asrwt>
<pdfrwt beam="1">  1       21 0.64013470E-01 0.40072703E+03</pdfrwt>
<pdfrwt beam="2">  1       21 0.13562760E-01 0.40072703E+03</pdfrwt>
<totfact> 0.99847836E+04</totfact>
</mgrwt>
</event>
<event>
 6    0  0.1539497E-004  0.4216948E+03  0.7546771E-02  0.1036516E+00
         21   -1    0    0  502  501  0.00000000000E+00  0.00000000000E+00  0.18751128590E+02  0.18751128590E+02  0.00000000000E+00 0.  1.
         21   -1    0    0  501  502 -0.00000000000E+00 -0.00000000000E+00 -0.23708771444E+04  0.23708771444E+04  0.00000000000E+00 0.  1.
      99925    2    1    2    0    0 -0.45008066578E+02 -0.30883496242E+02 -0.18455324338E+04  0.18649721172E+04  0.26296676073E+03 0.  0.
         25    1    3    3    0    0 -0.36068393608E+02  0.21795319755E-01 -0.68387148979E+03  0.69615275058E+03  0.12509000000E+03 0.  0.
         25    1    3    3    0    0 -0.89396729696E+01 -0.30905291562E+02 -0.11616609440E+04  0.11688193666E+04  0.12509000000E+03 0.  0.
         25    1    1    2    0    0  0.45008066578E+02  0.30883496242E+02 -0.50659358205E+03  0.52465615585E+03  0.12509000000E+03 0.  0.
<mgrwt>
<rscale>  2 0.42169478E+03</rscale>
<asrwt>0</asrwt>
<pdfrwt beam="1">  1       21 0.27575174E-02 0.42169478E+03</pdfrwt>
<pdfrwt beam="2">  1       21 0.34865860E+00 0.42169478E+03</pdfrwt>
<totfact> 0.10884092E+04</totfact>
</mgrwt>
</event>
<event>
 6    0  0.1539497E-004  0.4631077E+03  0.7546771E-02  0.1023884E+00
         21   -1    0    0  502  501  0.00000000000E+00  0.00000000000E+00  0.99735246423E+03  0.99735246423E+03  0.00000000000E+00 0.  1.
         21   -1    0    0  501  502 -0.00000000000E+00 -0.00000000000E+00 -0.53759527009E+02  0.53759527009E+02  0.00000000000E+00 0.  1.
      99925    2    1    2    0    0  0.99718664837E+02 -0.67882652783E+02  0.58465097985E+03  0.65231542214E+03  0.26295774385E+03 0.  0.
         25    1    1    2    0    0 -0.99718664837E+02  0.67882652783E+02  0.35894195737E+03  0.39879656910E+03  0.12509000000E+03 0.  0.
         25    1    3    3    0    0  0.88313473642E+02 -0.22388555652E+02  0.34013623555E+03  0.37368527384E+03  0.12509000000E+03 0.  0.
         25    1    3    3    0    0  0.11405191194E+02 -0.45494097131E+02  0.24451474430E+03  0.27863014830E+03  0.12509000000E+03 0.  0.
<mgrwt>
<rscale>  2 0.46310775E+03</rscale>
<asrwt>0</asrwt>
<pdfrwt beam="1">  1       21 0.14666947E+00 0.46310775E+03</pdfrwt>
<pdfrwt beam="2">  1       21 0.79058134E-02 0.46310775E+03</pdfrwt>
<totfact> 0.34970598E+04</totfact>
</mgrwt>
</event>
<event>
 6    0  0.1539497E-004  0.4466982E+03  0.7546771E-02  0.1028711E+00
         21   -1    0    0  502  501  0.00000000000E+00  0.00000000000E+00  0.14044513149E+03  0.14044513149E+03  0.00000000000E+00 0.  1.
         21   -1    0    0  501  502 -0.00000000000E+00 -0.00000000000E+00 -0.35519086103E+03  0.35519086103E+03  0.00000000000E+00 0.  1.
      99925    2    1    2    0    0  0.68081803947E+02  0.65719187413E+02 -0.85335939912E+02  0.29229257519E+03  0.26305623590E+03 0.  0.
         25    1    3    3    0    0  0.48610374493E+02  0.59775185540E+02 -0.75493497355E+02  0.16517511180E+03  0.12509000000E+03 0.  0.
         25    1    1    2    0    0 -0.68081803947E+02 -0.65719187413E+02 -0.12940978963E+03  0.20334341734E+03  0.12509000000E+03 0.  0.
         25    1    3    3    0    0  0.19471429454E+02  0.59440018723E+01 -0.98424425575E+01  0.12711746339E+03  0.12509000000E+03 0.  0.
<mgrwt>
<rscale>  2 0.44669823E+03</rscale>
<asrwt>0</asrwt>
<pdfrwt beam="1">  1       21 0.20653696E-01 0.44669823E+03</pdfrwt>
<pdfrwt beam="2">  1       21 0.52233950E-01 0.44669823E+03</pdfrwt>
<totfact> 0.70084216E+04</totfact>
</mgrwt>
</event>
<event>
 6    0  0.1539497E-004  0.4704807E+03  0.7546771E-02  0.1021785E+00
         21   -1    0    0  502  501  0.00000000000E+00  0.00000000000E+00  0.59500826778E+03  0.59500826778E+03  0.00000000000E+00 0. -1.
         21   -1    0    0  501  502 -0.00000000000E+00 -0.00000000000E+00 -0.93003772757E+02  0.93003772757E+02  0.00000000000E+00 0. -1.
      99925    2    1    2    0    0 -0.40537681493E+02 -0.43753536209E+02  0.14741310273E+03  0.30730186319E+03  0.26295653007E+03 0.  0.
         25    1    3    3    0    0 -0.22028270917E+02 -0.56886366791E+02  0.52898830773E+02  0.14888619091E+03  0.12509000000E+03 0.  0.
         25    1    1    2    0    0  0.40537681493E+02  0.43753536209E+02  0.35459139230E+03  0.38071017735E+03  0.12509000000E+03 0.  0.
         25    1    3    3    0    0 -0.18509410576E+02  0.13132830582E+02  0.94514271960E+02  0.15841567228E+03  0.12509000000E+03 0.  0.
<mgrwt>
<rscale>  2 0.47048066E+03</rscale>
<asrwt>0</asrwt>
<pdfrwt beam="1">  1       21 0.87501214E-01 0.47048066E+03</pdfrwt>
<pdfrwt beam="2">  1       21 0.13677026E-01 0.47048066E+03</pdfrwt>
<totfact> 0.47495922E+04</totfact>
</mgrwt>
</event>
<event>
 6    0  0.1539497E-004  0.4009385E+03  0.7546771E-02  0.1043455E+00
         21   -1    0    0  502  501  0.00000000000E+00  0.00000000000E+00  0.63347175096E+02  0.63347175096E+02  0.00000000000E+00 0.  1.
         21   -1    0    0  501  502 -0.00000000000E+00 -0.00000000000E+00 -0.63440742045E+03  0.63440742045E+03  0.00000000000E+00 0.  1.
      99925    2    1    2    0    0 -0.27561574469E+02 -0.32327679574E+02 -0.41666705085E+03  0.49455645121E+03  0.26300177359E+03 0.  0.
         25    1    1    2    0    0  0.27561574469E+02  0.32327679574E+02 -0.15439319450E+03  0.20319814434E+03  0.12509000000E+03 0.  0.
         25    1    3    3    0    0 -0.28844975957E+02 -0.48594232824E+02 -0.25389016297E+03  0.28861939480E+03  0.12509000000E+03 0.  0.
         25    1    3    3    0    0  0.12834014879E+01  0.16266553250E+02 -0.16277688788E+03  0.20593705641E+03  0.12509000000E+03 0.  0.
<mgrwt>
<rscale>  2 0.40093849E+03</rscale>
<asrwt>0</asrwt>
<pdfrwt beam="1">  1       21 0.93157606E-02 0.40093849E+03</pdfrwt>
<pdfrwt beam="2">  1       21 0.93295213E-01 0.40093849E+03</pdfrwt>
<totfact> 0.83151150E+04</totfact>
</mgrwt>
</event>
<event>
 6    0  0.1539497E-004  0.4654766E+03  0.7546771E-02  0.1023205E+00
         21   -1    0    0  502  501  0.00000000000E+00  0.00000000000E+00  0.27723843280E+03  0.27723843280E+03  0.00000000000E+00 0. -1.
         21   -1    0    0  501  502 -0.00000000000E+00 -0.00000000000E+00 -0.19538098544E+03  0.19538098544E+03  0.00000000000E+00 0. -1.
      99925    2    1    2    0    0 -0.20299529883E+02  0.12042551724E+03  0.39866359162E+02  0.29282749489E+03  0.26314300115E+03 0.  0.
         25    1    3    3    0    0  0.26839417391E+02  0.56249776457E+02  0.19391286518E+01  0.13977002539E+03  0.12509000000E+03 0.  0.
         25    1    1    2    0    0  0.20299529883E+02 -0.12042551724E+03  0.41991088198E+02  0.17979192336E+03  0.12509000000E+03 0.  0.
         25    1    3    3    0    0 -0.47138947274E+02  0.64175740787E+02  0.37927230511E+02  0.15305746950E+03  0.12509000000E+03 0.  0.
<mgrwt>
<rscale>  2 0.46547661E+03</rscale>
<asrwt>0</asrwt>
<pdfrwt beam="1">  1       21 0.40770358E-01 0.46547661E+03</pdfrwt>
<pdfrwt beam="2">  1       21 0.28732498E-01 0.46547661E+03</pdfrwt>
<totfact> 0.61927842E+04</totfact>
</mgrwt>
</event>
<event>
 6    0  0.1539497E-004  0.4206395E+03  0.7546771E-02  0.1036858E+00
         21   -1    0    0  502  501  0.00000000000E+00  0.00000000000E+00  0.58457052030E+02  0.58457052030E+02  0.00000000000E+00 0. -1.
         21   -1    0    0  501  502 -0.00000000000E+00 -0.00000000000E+00 -0.75669901278E+03  0.75669901278E+03  0.00000000000E+00 0. -1.
      99925    2    1    2    0    0  0.31301609409E+02  0.65341782507E+02 -0.40586672136E+03  0.48899639839E+03  0.26294551306E+03 0.  0.
         25    1    1    2    0    0 -0.31301609409E+02 -0.65341782507E+02 -0.29237523939E+03  0.32615966643E+03  0.12509000000E+03 0.  0.
         25    1    3    3    0    0 -0.19971097350E+02  0.17859683740E+02 -0.21740203637E+03  0.25224782764E+03  0.12509000000E+03 0.  0.
         25    1    3    3    0    0  0.51272706760E+02  0.47482098766E+02 -0.18846468500E+03  0.23674857075E+03  0.12509000000E+03 0.  0.
<mgrwt>
<rscale>  2 0.42063948E+03</rscale>
<asrwt>0</asrwt>
<pdfrwt beam="1">  1       21 0.85966250E-02 0.42063948E+03</pdfrwt>
<pdfrwt beam="2">  1       21 0.11127927E+00 0.42063948E+03</pdfrwt>
<totfact> 0.62185732E+04</totfact>
</mgrwt>
</event>
<event>
 6    0  0.1539497E-004  0.4003725E+03  0.7546771E-02  0.1043651E+00
         21   -1    0    0  502  501  0.00000000000E+00  0.00000000000E+00  0.87619534219E+03  0.87619534219E+03  0.00000000000E+00 0.  1.
         21   -1    0    0  501  502 -0.00000000000E+00 -0.00000000000E+00 -0.45736996452E+02  0.45736996452E+02  0.00000000000E+00 0.  1.
      99925    2    1    2    0    0  0.35356561109E+02 -0.47706039852E+01  0.48659901866E+03  0.55429176690E+03  0.26303595346E+03 0.  0.
         25    1    1    2    0    0 -0.35356561109E+02  0.47706039852E+01  0.34385932707E+03  0.36764057174E+03  0.12509000000E+03 0.  0.
         25    1    3    3    0    0 -0.20014445232E+02 -0.18182830101E+02  0.23726000960E+03  0.26957561757E+03  0.12509000000E+03 0.  0.
         25    1    3    3    0    0  0.55371006341E+02  0.13412226116E+02  0.24933900906E+03  0.28471614933E+03  0.12509000000E+03 0.  0.
<mgrwt>
<rscale>  2 0.40037254E+03</rscale>
<asrwt>0</asrwt>
<pdfrwt beam="1">  1       21 0.12885225E+00 0.40037254E+03</pdfrwt>
<pdfrwt beam="2">  1       21 0.67260295E-02 0.40037254E+03</pdfrwt>
<totfact> 0.66480213E+04</totfact>
</mgrwt>
</event>
<event>
 6    0  0.1539497E-004  0.4082163E+03  0.7546771E-02  0.1040971E+00
         21   -1    0    0  502  501  0.00000000000E+00  0.00000000000E+00  0.72585974311E+02  0.72585974311E+02  0.00000000000E+00 0. -1.
         21   -1    0    0  501  502 -0.00000000000E+00 -0.00000000000E+00 -0.57394205480E+03  0.57394205480E+03  0.00000000000E+00 0. -1.
      99925    2    1    2    0    0  0.39038432631E+02 -0.43107677893E+02 -0.31052839604E+03  0.41106044245E+03  0.26298389967E+03 0.  0.
         25    1    1    2    0    0 -0.39038432631E+02  0.43107677893E+02 -0.19082768445E+03  0.23546758666E+03  0.12509000000E+03 0.  0.
         25    1    3    3    0    0 -0.28717811999E+01 -0.54690576533E+02 -0.14712293612E+03  0.20072860464E+03  0.12509000000E+03 0.  0.
         25    1    3    3    0    0  0.41910213831E+02  0.11582898641E+02 -0.16340545992E+03  0.21033183781E+03  0.12509000000E+03 0.  0.
<mgrwt>
<rscale>  2 0.40821633E+03</rscale>
<asrwt>0</asrwt>
<pdfrwt beam="1">  1       21 0.10674408E-01 0.40821633E+03</pdfrwt>
<pdfrwt beam="2">  1       21 0.84403242E-01 0.40821633E+03</pdfrwt>
<totfact> 0.82313508E+04</totfact>
</mgrwt>
</event>
<event>
 6    0  0.1539497E-004  0.4470492E+03  0.7546771E-02  0.1028606E+00
         21   -1    0    0  502  501  0.00000000000E+00  0.00000000000E+00  0.58109566676E+03  0.58109566676E+03  0.00000000000E+00 0. -1.
         21   -1    0    0  501  502 -0.00000000000E+00 -0.00000000000E+00 -0.85981113305E+02  0.85981113305E+02  0.00000000000E+00 0. -1.
      99925    2    1    2    0    0 -0.79679051542E+02  0.69397450942E+02  0.32240089313E+03  0.42908040611E+03  0.26268403371E+03 0.  0.
         25    1    1    2    0    0  0.79679051542E+02 -0.69397450942E+02  0.17271366033E+03  0.23799637395E+03  0.12509000000E+03 0.  0.
         25    1    3    3    0    0 -0.27015205585E+02  0.31823042323E+02  0.21397673815E+03  0.25134852282E+03  0.12509000000E+03 0.  0.
         25    1    3    3    0    0 -0.52663845957E+02  0.37574408619E+02  0.10842415498E+03  0.17773188329E+03  0.12509000000E+03 0.  0.
<mgrwt>
<rscale>  2 0.44704922E+03</rscale>
<asrwt>0</asrwt>
<pdfrwt beam="1">  1       21 0.85455244E-01 0.44704922E+03</pdfrwt>
<pdfrwt beam="2">  1       21 0.12644282E-01 0.44704922E+03</pdfrwt>
<totfact> 0.58294426E+04</totfact>
</mgrwt>
</event>
<event>
 6    0  0.1539497E-004  0.4535586E+03  0.7546771E-02  0.1026666E+00
         21   -1    0    0  502  501  0.00000000000E+00  0.00000000000E+00  0.84277058549E+03  0.84277058549E+03  0.00000000000E+00 0. -1.
         21   -1    0    0  501  502 -0.00000000000E+00 -0.00000000000E+00 -0.61023547118E+02  0.61023547118E+02  0.00000000000E+00 0. -1.
      99925    2    1    2    0    0  0.21526771783E+02 -0.53598377590E+02  0.68361476793E+03  0.73463846883E+03  0.26273245133E+03 0.  0.
         25    1    3    3    0    0 -0.15570656728E+02 -0.47272525234E+02  0.40793437035E+03  0.42957548302E+03  0.12509000000E+03 0.  0.
         25    1    1    2    0    0 -0.21526771783E+02  0.53598377590E+02  0.98132270441E+02  0.16915566377E+03  0.12509000000E+03 0.  0.
         25    1    3    3    0    0  0.37097428511E+02 -0.63258523556E+01  0.27568039757E+03  0.30506298582E+03  0.12509000000E+03 0.  0.
<mgrwt>
<rscale>  2 0.45355860E+03</rscale>
<asrwt>0</asrwt>
<pdfrwt beam="1">  1       21 0.12393684E+00 0.45355860E+03</pdfrwt>
<pdfrwt beam="2">  1       21 0.89740516E-02 0.45355860E+03</pdfrwt>
<totfact> 0.43559547E+04</totfact>
</mgrwt>
</event>
<event>
 6    0  0.1539497E-004  0.5214397E+03  0.7546771E-02  0.1008330E+00
         21   -1    0    0  502  501  0.00000000000E+00  0.00000000000E+00  0.55698100583E+03  0.55698100583E+03  0.00000000000E+00 0. -1.
         21   -1    0    0  501  502 -0.00000000000E+00 -0.00000000000E+00 -0.12204157733E+03  0.12204157733E+03  0.00000000000E+00 0. -1.
      99925    2    1    2    0    0  0.16492179067E+03 -0.11402445108E+02  0.29820130934E+03  0.43068000904E+03  0.26311981396E+03 0.  0.
         25    1    1    2    0    0 -0.16492179067E+03  0.11402445108E+02  0.13673811916E+03  0.24834257413E+03  0.12509000000E+03 0.  0.
         25    1    3    3    0    0  0.84453541069E+02 -0.42711427503E+02  0.12771060583E+03  0.20227252305E+03  0.12509000000E+03 0.  0.
         25    1    3    3    0    0  0.80468249602E+02  0.31308982396E+02  0.17049070351E+03  0.22840748599E+03  0.12509000000E+03 0.  0.
<mgrwt>
<rscale>  2 0.52143970E+03</rscale>
<asrwt>0</asrwt>
<pdfrwt beam="1">  1       21 0.81908970E-01 0.52143970E+03</pdfrwt>
<pdfrwt beam="2">  1       21 0.17947291E-01 0.52143970E+03</pdfrwt>
<totfact> 0.33039931E+04</totfact>
</mgrwt>
</event>
<event>
 6    0  0.1539497E-004  0.4355846E+03  0.7546771E-02  0.1032110E+00
         21   -1    0    0  502  501  0.00000000000E+00  0.00000000000E+00  0.10625747109E+04  0.10625747109E+04  0.00000000000E+00 0. -1.
         21   -1    0    0  501  502 -0.00000000000E+00 -0.00000000000E+00 -0.44640151295E+02  0.44640151295E+02  0.00000000000E+00 0. -1.
      99925    2    1    2    0    0 -0.38625321370E+02 -0.23183557414E+02  0.44342427911E+03  0.51752090489E+03  0.26300837042E+03 0.  0.
         25    1    3    3    0    0 -0.37987944689E+02 -0.53233303764E+01  0.29420980983E+03  0.32199121431E+03  0.12509000000E+03 0.  0.
         25    1    3    3    0    0 -0.63737668120E+00 -0.17860227038E+02  0.14921446928E+03  0.19552969059E+03  0.12509000000E+03 0.  0.
         25    1    1    2    0    0  0.38625321370E+02  0.23183557414E+02  0.57451028045E+03  0.58969395725E+03  0.12509000000E+03 0.  0.
<mgrwt>
<rscale>  2 0.43558465E+03</rscale>
<asrwt>0</asrwt>
<pdfrwt beam="1">  1       21 0.15626097E+00 0.43558465E+03</pdfrwt>
<pdfrwt beam="2">  1       21 0.65647288E-02 0.43558465E+03</pdfrwt>
<totfact> 0.41125285E+04</totfact>
</mgrwt>
</event>
<event>
 6    0  0.1539497E-004  0.4346475E+03  0.7546771E-02  0.1032402E+00
         21   -1    0    0  502  501  0.00000000000E+00  0.00000000000E+00  0.40684550672E+03  0.40684550672E+03  0.00000000000E+00 0.  1.
         21   -1    0    0  501  502 -0.00000000000E+00 -0.00000000000E+00 -0.11608733372E+03  0.11608733372E+03  0.00000000000E+00 0.  1.
      99925    2    1    2    0    0 -0.16584012362E+01  0.79098179035E+02  0.12919285547E+03  0.30382069530E+03  0.26335707464E+03 0.  0.
         25    1    3    3    0    0  0.18544395888E+02  0.58468906099E+02  0.10180585984E+03  0.17255274207E+03  0.12509000000E+03 0.  0.
         25    1    3    3    0    0 -0.20202797125E+02  0.20629272936E+02  0.27386995631E+02  0.13126795322E+03  0.12509000000E+03 0.  0.
         25    1    1    2    0    0  0.16584012362E+01 -0.79098179035E+02  0.16156531753E+03  0.21911214514E+03  0.12509000000E+03 0.  0.
<mgrwt>
<rscale>  2 0.43464749E+03</rscale>
<asrwt>0</asrwt>
<pdfrwt beam="1">  1       21 0.59830221E-01 0.43464749E+03</pdfrwt>
<pdfrwt beam="2">  1       21 0.17071667E-01 0.43464749E+03</pdfrwt>
<totfact> 0.75077155E+04</totfact>
</mgrwt>
</event>
<event>
 6    0  0.1539497E-004  0.4000768E+03  0.7546771E-02  0.1043753E+00
         21   -1    0    0  502  501  0.00000000000E+00  0.00000000000E+00  0.32254604875E+03  0.32254604875E+03  0.00000000000E+00 0.  1.
         21   -1    0    0  501  502 -0.00000000000E+00 -0.00000000000E+00 -0.12406093856E+03  0.12406093856E+03  0.00000000000E+00 0.  1.
      99925    2    1    2    0    0 -0.40029974816E+02  0.18801427175E+01  0.15665940703E+03  0.30875622973E+03  0.26302529492E+03 0.  0.
         25    1    1    2    0    0  0.40029974816E+02 -0.18801427175E+01  0.41825703159E+02  0.13785075758E+03  0.12509000000E+03 0.  0.
         25    1    3    3    0    0  0.10699952884E+02  0.23717401492E+02  0.59057741222E+02  0.14075627525E+03  0.12509000000E+03 0.  0.
         25    1    3    3    0    0 -0.50729927701E+02 -0.21837258775E+02  0.97601665810E+02  0.16799995448E+03  0.12509000000E+03 0.  0.
<mgrwt>
<rscale>  2 0.40007682E+03</rscale>
<asrwt>0</asrwt>
<pdfrwt beam="1">  1       21 0.47433242E-01 0.40007682E+03</pdfrwt>
<pdfrwt beam="2">  1       21 0.18244256E-01 0.40007682E+03</pdfrwt>
<totfact> 0.10983378E+05</totfact>
</mgrwt>
</event>
<event>
 5    0  0.1539497E-004  0.5608602E+03  0.7546771E-02  0.9990110E-01
         21   -1    0    0  502  501  0.00000000000E+00  0.00000000000E+00  0.72364274210E+02  0.72364274210E+02  0.00000000000E+00 0.  1.
         21   -1    0    0  501  502 -0.00000000000E+00 -0.00000000000E+00 -0.10867382831E+04  0.10867382831E+04  0.00000000000E+00 0.  1.
         25    1    1    2    0    0  0.80355581134E+02 -0.98561284998E+02 -0.48163675080E+03  0.51360764611E+03  0.12509000000E+03 0.  0.
         25    1    1    2    0    0 -0.21641683873E+01 -0.41238059571E+02 -0.34312097930E+03  0.36753880845E+03  0.12509000000E+03 0.  0.
         25    1    1    2    0    0 -0.78191412747E+02  0.13979934457E+03 -0.18961627876E+03  0.27795610272E+03  0.12509000000E+03 0.  0.
<mgrwt>
<rscale>  2 0.56086015E+03</rscale>
<asrwt>0</asrwt>
<pdfrwt beam="1">  1       21 0.10641806E-01 0.56086015E+03</pdfrwt>
<pdfrwt beam="2">  1       21 0.15981444E+00 0.56086015E+03</pdfrwt>
<totfact> 0.15818030E+04</totfact>
</mgrwt>
</event>
<event>
 6    0  0.1539497E-004  0.4876358E+03  0.7546771E-02  0.1017057E+00
         21   -1    0    0  502  501  0.00000000000E+00  0.00000000000E+00  0.40621509333E+02  0.40621509333E+02  0.00000000000E+00 0. -1.
         21   -1    0    0  501  502 -0.00000000000E+00 -0.00000000000E+00 -0.14634407942E+04  0.14634407942E+04  0.00000000000E+00 0. -1.
      99925    2    1    2    0    0  0.91588023016E+01 -0.62734090311E+02 -0.12620465791E+04  0.12907202758E+04  0.26301675419E+03 0.  0.
         25    1    3    3    0    0 -0.45532206308E+01  0.89384883773E+01 -0.61306670315E+03  0.62577865017E+03  0.12509000000E+03 0.  0.
         25    1    3    3    0    0  0.13712022932E+02 -0.71672578688E+02 -0.64897987592E+03  0.66494162568E+03  0.12509000000E+03 0.  0.
         25    1    1    2    0    0 -0.91588023016E+01  0.62734090311E+02 -0.16077270577E+03  0.21334202767E+03  0.12509000000E+03 0.  0.
<mgrwt>
<rscale>  2 0.48763582E+03</rscale>
<asrwt>0</asrwt>
<pdfrwt beam="1">  1       21 0.59737503E-02 0.48763582E+03</pdfrwt>
<pdfrwt beam="2">  1       21 0.21521192E+00 0.48763582E+03</pdfrwt>
<totfact> 0.18521010E+04</totfact>
</mgrwt>
</event>
<event>
 6    0  0.1539497E-004  0.9945179E+03  0.7546771E-02  0.9314578E-01
         21   -1    0    0  502  501  0.00000000000E+00  0.00000000000E+00  0.33695056198E+03  0.33695056198E+03  0.00000000000E+00 0.  1.
         21   -1    0    0  501  502 -0.00000000000E+00 -0.00000000000E+00 -0.73383605059E+03  0.73383605059E+03  0.00000000000E+00 0.  1.
      99925    2    1    2    0    0 -0.19990562515E+01 -0.10538022807E+03  0.26577932277E+03  0.38823174368E+03  0.26263329891E+03 0.  0.
         25    1    3    3    0    0  0.20450808013E+01 -0.72575744351E+02  0.18825647873E+03  0.23740141303E+03  0.12509000000E+03 0.  0.
         25    1    1    2    0    0  0.19990562515E+01  0.10538022807E+03 -0.66266481138E+03  0.68255486889E+03  0.12509000000E+03 0.  0.
         25    1    3    3    0    0 -0.40441370529E+01 -0.32804483720E+02  0.77522844040E+02  0.15083033065E+03  0.12509000000E+03 0.  0.
<mgrwt>
<rscale>  2 0.99451791E+03</rscale>
<asrwt>0</asrwt>
<pdfrwt beam="1">  1       21 0.49551554E-01 0.99451791E+03</pdfrwt>
<pdfrwt beam="2">  1       21 0.10791707E+00 0.99451791E+03</pdfrwt>
<totfact> 0.20152383E+03</totfact>
</mgrwt>
</event>
<event>
 6    0  0.1539497E-004  0.4068908E+03  0.7546771E-02  0.1041419E+00
         21   -1    0    0  502  501  0.00000000000E+00  0.00000000000E+00  0.43078058810E+03  0.43078058810E+03  0.00000000000E+00 0.  1.
         21   -1    0    0  501  502 -0.00000000000E+00 -0.00000000000E+00 -0.96081486729E+02  0.96081486729E+02  0.00000000000E+00 0.  1.
      99925    2    1    2    0    0 -0.50157920695E+02 -0.27021923983E+02  0.21234132427E+03  0.34283779627E+03  0.26306446961E+03 0.  0.
         25    1    1    2    0    0  0.50157920695E+02  0.27021923983E+02  0.12235777710E+03  0.18402427856E+03  0.12509000000E+03 0.  0.
         25    1    3    3    0    0 -0.27040041456E+01 -0.14247588983E+02  0.14648539563E+03  0.19317293978E+03  0.12509000000E+03 0.  0.
         25    1    3    3    0    0 -0.47453916549E+02 -0.12774335000E+02  0.65855928649E+02  0.14966485649E+03  0.12509000000E+03 0.  0.
<mgrwt>
<rscale>  2 0.40689084E+03</rscale>
<asrwt>0</asrwt>
<pdfrwt beam="1">  1       21 0.63350086E-01 0.40689084E+03</pdfrwt>
<pdfrwt beam="2">  1       21 0.14129631E-01 0.40689084E+03</pdfrwt>
<totfact> 0.94636912E+04</totfact>
</mgrwt>
</event>
<event>
 6    0  0.1539497E-004  0.4334764E+03  0.7546771E-02  0.1032767E+00
         21   -1    0    0  502  501  0.00000000000E+00  0.00000000000E+00  0.11851560415E+04  0.11851560415E+04  0.00000000000E+00 0. -1.
         21   -1    0    0  501  502 -0.00000000000E+00 -0.00000000000E+00 -0.39636501928E+02  0.39636501928E+02  0.00000000000E+00 0. -1.
      99925    2    1    2    0    0 -0.22197290783E+02 -0.16433574152E+02  0.48886100850E+03  0.55575538706E+03  0.26289956739E+03 0.  0.
         25    1    3    3    0    0 -0.92490680365E+01 -0.38104044572E+02  0.30468380391E+03  0.33168839585E+03  0.12509000000E+03 0.  0.
         25    1    1    2    0    0  0.22197290783E+02  0.16433574152E+02  0.65665853112E+03  0.66903715642E+03  0.12509000000E+03 0.  0.
         25    1    3    3    0    0 -0.12948222747E+02  0.21670470420E+02  0.18417720459E+03  0.22406699121E+03  0.12509000000E+03 0.  0.
<mgrwt>
<rscale>  2 0.43347636E+03</rscale>
<asrwt>0</asrwt>
<pdfrwt beam="1">  1       21 0.17428763E+00 0.43347636E+03</pdfrwt>
<pdfrwt beam="2">  1       21 0.58288981E-02 0.43347636E+03</pdfrwt>
<totfact> 0.37238203E+04</totfact>
</mgrwt>
</event>
<event>
 6    0  0.1539497E-004  0.4102418E+03  0.7546771E-02  0.1040290E+00
         21   -1    0    0  502  501  0.00000000000E+00  0.00000000000E+00  0.20928278991E+03  0.20928278991E+03  0.00000000000E+00 0.  1.
         21   -1    0    0  501  502 -0.00000000000E+00 -0.00000000000E+00 -0.20104179747E+03  0.20104179747E+03  0.00000000000E+00 0.  1.
      99925    2    1    2    0    0  0.29457083784E+02 -0.20711540304E+01 -0.49876896588E+02  0.26926712892E+03  0.26295450640E+03 0.  0.
         25    1    3    3    0    0  0.18261045455E+02 -0.39684748840E+02 -0.36805557342E+02  0.13751546176E+03  0.12509000000E+03 0.  0.
         25    1    3    3    0    0  0.11196038329E+02  0.37613594810E+02 -0.13071339245E+02  0.13175166716E+03  0.12509000000E+03 0.  0.
         25    1    1    2    0    0 -0.29457083784E+02  0.20711540304E+01  0.58117889031E+02  0.14105745847E+03  0.12509000000E+03 0.  0.
<mgrwt>
<rscale>  2 0.41024182E+03</rscale>
<asrwt>0</asrwt>
<pdfrwt beam="1">  1       21 0.30776881E-01 0.41024182E+03</pdfrwt>
<pdfrwt beam="2">  1       21 0.29564970E-01 0.41024182E+03</pdfrwt>
<totfact> 0.10460821E+05</totfact>
</mgrwt>
</event>
<event>
 6    0  0.1539497E-004  0.4587466E+03  0.7546771E-02  0.1025145E+00
         21   -1    0    0  502  501  0.00000000000E+00  0.00000000000E+00  0.44391078409E+03  0.44391078409E+03  0.00000000000E+00 0.  1.
         21   -1    0    0  501  502 -0.00000000000E+00 -0.00000000000E+00 -0.11851957888E+03  0.11851957888E+03  0.00000000000E+00 0.  1.
      99925    2    1    2    0    0  0.99618669241E+02  0.68844305675E+01  0.13014333592E+03  0.30996152686E+03  0.26299731102E+03 0.  0.
         25    1    3    3    0    0  0.67156289985E+02  0.40337327587E+02  0.62111519845E+02  0.16013249601E+03  0.12509000000E+03 0.  0.
         25    1    3    3    0    0  0.32462379256E+02 -0.33452897020E+02  0.68031816080E+02  0.14982903085E+03  0.12509000000E+03 0.  0.
         25    1    1    2    0    0 -0.99618669241E+02 -0.68844305675E+01  0.19524786929E+03  0.25246883611E+03  0.12509000000E+03 0.  0.
<mgrwt>
<rscale>  2 0.45874664E+03</rscale>
<asrwt>0</asrwt>
<pdfrwt beam="1">  1       21 0.65280997E-01 0.45874664E+03</pdfrwt>
<pdfrwt beam="2">  1       21 0.17429350E-01 0.45874664E+03</pdfrwt>
<totfact> 0.59276288E+04</totfact>
</mgrwt>
</event>
<event>
 6    0  0.1539497E-004  0.4538019E+03  0.7546771E-02  0.1026594E+00
         21   -1    0    0  502  501  0.00000000000E+00  0.00000000000E+00  0.95487421201E+03  0.95487421201E+03  0.00000000000E+00 0.  1.
         21   -1    0    0  501  502 -0.00000000000E+00 -0.00000000000E+00 -0.53917081309E+02  0.53917081309E+02  0.00000000000E+00 0.  1.
      99925    2    1    2    0    0 -0.69854316532E+02  0.84263100690E+02  0.62114642686E+03  0.68333556091E+03  0.26295381633E+03 0.  0.
         25    1    3    3    0    0 -0.60651330576E+02  0.37139353156E+02  0.39603845599E+03  0.42136905698E+03  0.12509000000E+03 0.  0.
         25    1    1    2    0    0  0.69854316532E+02 -0.84263100690E+02  0.27981070383E+03  0.32545573241E+03  0.12509000000E+03 0.  0.
         25    1    3    3    0    0 -0.92029859554E+01  0.47123747534E+02  0.22510797087E+03  0.26196650393E+03  0.12509000000E+03 0.  0.
<mgrwt>
<rscale>  2 0.45380185E+03</rscale>
<asrwt>0</asrwt>
<pdfrwt beam="1">  1       21 0.14042267E+00 0.45380185E+03</pdfrwt>
<pdfrwt beam="2">  1       21 0.79289831E-02 0.45380185E+03</pdfrwt>
<totfact> 0.39191982E+04</totfact>
</mgrwt>
</event>
<event>
 6    0  0.1539497E-004  0.4868053E+03  0.7546771E-02  0.1017281E+00
         21   -1    0    0  502  501  0.00000000000E+00  0.00000000000E+00  0.68747301945E+03  0.68747301945E+03  0.00000000000E+00 0.  1.
         21   -1    0    0  501  502 -0.00000000000E+00 -0.00000000000E+00 -0.86177724159E+02  0.86177724159E+02  0.00000000000E+00 0.  1.
      99925    2    1    2    0    0  0.89388252096E+02 -0.99849286593E+02  0.29923205703E+03  0.42030976430E+03  0.26298352490E+03 0.  0.
         25    1    3    3    0    0  0.39962399600E+02 -0.92162035586E+02  0.16093430967E+03  0.22724038883E+03  0.12509000000E+03 0.  0.
         25    1    3    3    0    0  0.49425852496E+02 -0.76872510074E+01  0.13829774736E+03  0.19306937548E+03  0.12509000000E+03 0.  0.
         25    1    1    2    0    0 -0.89388252096E+02  0.99849286593E+02  0.30206323827E+03  0.35334097931E+03  0.12509000000E+03 0.  0.
<mgrwt>
<rscale>  2 0.48680534E+03</rscale>
<asrwt>0</asrwt>
<pdfrwt beam="1">  1       21 0.10109897E+00 0.48680534E+03</pdfrwt>
<pdfrwt beam="2">  1       21 0.12673195E-01 0.48680534E+03</pdfrwt>
<totfact> 0.38512135E+04</totfact>
</mgrwt>
</event>
<event>
 6    0  0.1539497E-004  0.4002276E+03  0.7546771E-02  0.1043701E+00
         21   -1    0    0  502  501  0.00000000000E+00  0.00000000000E+00  0.23530647563E+03  0.23530647563E+03  0.00000000000E+00 0.  1.
         21   -1    0    0  501  502 -0.00000000000E+00 -0.00000000000E+00 -0.17018454661E+03  0.17018454661E+03  0.00000000000E+00 0.  1.
      99925    2    1    2    0    0 -0.42697557628E+02 -0.71022920131E+01  0.58104535612E+02  0.27293810492E+03  0.26314548842E+03 0.  0.
         25    1    3    3    0    0  0.11690440092E+01 -0.17334376018E+02  0.60342524223E+02  0.13996633733E+03  0.12509000000E+03 0.  0.
         25    1    3    3    0    0 -0.43866601638E+02  0.10232084005E+02 -0.22379886106E+01  0.13297176759E+03  0.12509000000E+03 0.  0.
         25    1    1    2    0    0  0.42697557628E+02  0.71022920131E+01  0.70173934064E+01  0.13255291732E+03  0.12509000000E+03 0.  0.
<mgrwt>
<rscale>  2 0.40022756E+03</rscale>
<asrwt>0</asrwt>
<pdfrwt beam="1">  1       21 0.34603894E-01 0.40022756E+03</pdfrwt>
<pdfrwt beam="2">  1       21 0.25027139E-01 0.40022756E+03</pdfrwt>
<totfact> 0.11491176E+05</totfact>
</mgrwt>
</event>
<event>
 6    0  0.1539497E-004  0.4297053E+03  0.7546771E-02  0.1033953E+00
         21   -1    0    0  502  501  0.00000000000E+00  0.00000000000E+00  0.38768580383E+03  0.38768580383E+03  0.00000000000E+00 0.  1.
         21   -1    0    0  501  502 -0.00000000000E+00 -0.00000000000E+00 -0.11906976307E+03  0.11906976307E+03  0.00000000000E+00 0.  1.
      99925    2    1    2    0    0  0.43608977598E+02 -0.46943337049E+02  0.10366607758E+03  0.29004973340E+03  0.26320481071E+03 0.  0.
         25    1    1    2    0    0 -0.43608977598E+02  0.46943337049E+02  0.16494996318E+03  0.21670583350E+03  0.12509000000E+03 0.  0.
         25    1    3    3    0    0 -0.11109007414E+02 -0.38412064275E+01  0.66379415346E+02  0.14209820475E+03  0.12509000000E+03 0.  0.
         25    1    3    3    0    0  0.54717985012E+02 -0.43102130622E+02  0.37286662239E+02  0.14795152865E+03  0.12509000000E+03 0.  0.
<mgrwt>
<rscale>  2 0.42970528E+03</rscale>
<asrwt>0</asrwt>
<pdfrwt beam="1">  1       21 0.57012618E-01 0.42970528E+03</pdfrwt>
<pdfrwt beam="2">  1       21 0.17510259E-01 0.42970528E+03</pdfrwt>
<totfact> 0.79607346E+04</totfact>
</mgrwt>
</event>
<event>
 6    0  0.1539497E-004  0.4261006E+03  0.7546771E-02  0.1035099E+00
         21   -1    0    0  502  501  0.00000000000E+00  0.00000000000E+00  0.12940046366E+03  0.12940046366E+03  0.00000000000E+00 0. -1.
         21   -1    0    0  501  502 -0.00000000000E+00 -0.00000000000E+00 -0.35077484409E+03  0.35077484409E+03  0.00000000000E+00 0. -1.
      99925    2    1    2    0    0  0.42467508195E+02 -0.70249535853E+02 -0.12752591731E+03  0.30355840971E+03  0.26295695842E+03 0.  0.
         25    1    1    2    0    0 -0.42467508195E+02  0.70249535853E+02 -0.93848463124E+02  0.17661689803E+03  0.12509000000E+03 0.  0.
         25    1    3    3    0    0  0.21299209035E+01 -0.70797843745E+02 -0.59693558527E+02  0.15565249844E+03  0.12509000000E+03 0.  0.
         25    1    3    3    0    0  0.40337587291E+02  0.54830789238E+00 -0.67832358779E+02  0.14790591127E+03  0.12509000000E+03 0.  0.
<mgrwt>
<rscale>  2 0.42610059E+03</rscale>
<asrwt>0</asrwt>
<pdfrwt beam="1">  1       21 0.19029480E-01 0.42610059E+03</pdfrwt>
<pdfrwt beam="2">  1       21 0.51584536E-01 0.42610059E+03</pdfrwt>
<totfact> 0.84463107E+04</totfact>
</mgrwt>
</event>
<event>
 6    0  0.1539497E-004  0.4396036E+03  0.7546771E-02  0.1030868E+00
         21   -1    0    0  502  501  0.00000000000E+00  0.00000000000E+00  0.32602031777E+03  0.32602031777E+03  0.00000000000E+00 0. -1.
         21   -1    0    0  501  502 -0.00000000000E+00 -0.00000000000E+00 -0.14818963962E+03  0.14818963962E+03  0.00000000000E+00 0. -1.
      99925    2    1    2    0    0  0.79433627431E+02 -0.12519052283E+02  0.53065022918E+02  0.28009554613E+03  0.26300416435E+03 0.  0.
         25    1    1    2    0    0 -0.79433627431E+02  0.12519052283E+02  0.12476565523E+03  0.19411441127E+03  0.12509000000E+03 0.  0.
         25    1    3    3    0    0  0.65230802044E+02 -0.44299194317E+01 -0.49696199148E+01  0.14123344839E+03  0.12509000000E+03 0.  0.
         25    1    3    3    0    0  0.14202825387E+02 -0.80891328514E+01  0.58034642833E+02  0.13886209774E+03  0.12509000000E+03 0.  0.
<mgrwt>
<rscale>  2 0.43960361E+03</rscale>
<asrwt>0</asrwt>
<pdfrwt beam="1">  1       21 0.47944164E-01 0.43960361E+03</pdfrwt>
<pdfrwt beam="2">  1       21 0.21792594E-01 0.43960361E+03</pdfrwt>
<totfact> 0.75995767E+04</totfact>
</mgrwt>
</event>
<event>
 6    0  0.1539497E-004  0.3993127E+03  0.7546771E-02  0.1044018E+00
         21   -1    0    0  502  501  0.00000000000E+00  0.00000000000E+00  0.87906347755E+02  0.87906347755E+02  0.00000000000E+00 0.  1.
         21   -1    0    0  501  502 -0.00000000000E+00 -0.00000000000E+00 -0.45346731169E+03  0.45346731169E+03  0.00000000000E+00 0.  1.
      99925    2    1    2    0    0  0.34276430095E+02 -0.54893943339E+01 -0.28091768436E+03  0.38639946809E+03  0.26303002954E+03 0.  0.
         25    1    3    3    0    0  0.39406584970E+02  0.31273428777E+02 -0.14355758024E+03  0.19694464509E+03  0.12509000000E+03 0.  0.
         25    1    1    2    0    0 -0.34276430095E+02  0.54893943339E+01 -0.84643279578E+02  0.15497419136E+03  0.12509000000E+03 0.  0.
         25    1    3    3    0    0 -0.51301548752E+01 -0.36762823111E+02 -0.13736010412E+03  0.18945482299E+03  0.12509000000E+03 0.  0.
<mgrwt>
<rscale>  2 0.39931269E+03</rscale>
<asrwt>0</asrwt>
<pdfrwt beam="1">  1       21 0.12927405E-01 0.39931269E+03</pdfrwt>
<pdfrwt beam="2">  1       21 0.66686367E-01 0.39931269E+03</pdfrwt>
<totfact> 0.99596510E+04</totfact>
</mgrwt>
</event>
<event>
 6    0  0.1539497E-004  0.4477772E+03  0.7546771E-02  0.1028387E+00
         21   -1    0    0  502  501  0.00000000000E+00  0.00000000000E+00  0.85622767712E+02  0.85622767712E+02  0.00000000000E+00 0.  1.
         21   -1    0    0  501  502 -0.00000000000E+00 -0.00000000000E+00 -0.58542964905E+03  0.58542964905E+03  0.00000000000E+00 0.  1.
      99925    2    1    2    0    0 -0.82427444935E+02  0.46315189294E+02 -0.24598121279E+03  0.37269967494E+03  0.26355058379E+03 0.  0.
         25    1    3    3    0    0 -0.81545746910E+02  0.32143508012E+02 -0.11646271833E+03  0.19207807477E+03  0.12509000000E+03 0.  0.
         25    1    3    3    0    0 -0.88169802467E+00  0.14171681281E+02 -0.12951849446E+03  0.18062160017E+03  0.12509000000E+03 0.  0.
         25    1    1    2    0    0  0.82427444935E+02 -0.46315189294E+02 -0.25382566855E+03  0.29835274183E+03  0.12509000000E+03 0.  0.
<mgrwt>
<rscale>  2 0.44777721E+03</rscale>
<asrwt>0</asrwt>
<pdfrwt beam="1">  1       21 0.12591583E-01 0.44777721E+03</pdfrwt>
<pdfrwt beam="2">  1       21 0.86092595E-01 0.44777721E+03</pdfrwt>
<totfact> 0.57717913E+04</totfact>
</mgrwt>
</event>
<event>
 6    0  0.1539497E-004  0.3962661E+03  0.7546771E-02  0.1045080E+00
         21   -1    0    0  502  501  0.00000000000E+00  0.00000000000E+00  0.51538915140E+02  0.51538915140E+02  0.00000000000E+00 0. -1.
         21   -1    0    0  501  502 -0.00000000000E+00 -0.00000000000E+00 -0.76169072114E+03  0.76169072114E+03  0.00000000000E+00 0. -1.
      99925    2    1    2    0    0 -0.25049643021E+02 -0.24901307119E+02 -0.50182706918E+03  0.56768073325E+03  0.26302746591E+03 0.  0.
         25    1    3    3    0    0  0.20224662459E+02  0.11933175387E+02 -0.23391425169E+03  0.26629837192E+03  0.12509000000E+03 0.  0.
         25    1    3    3    0    0 -0.45274305480E+02 -0.36834482505E+02 -0.26791281750E+03  0.30138236132E+03  0.12509000000E+03 0.  0.
         25    1    1    2    0    0  0.25049643021E+02  0.24901307119E+02 -0.20832473682E+03  0.24554890303E+03  0.12509000000E+03 0.  0.
<mgrwt>
<rscale>  2 0.39626614E+03</rscale>
<asrwt>0</asrwt>
<pdfrwt beam="1">  1       21 0.75792527E-02 0.39626614E+03</pdfrwt>
<pdfrwt beam="2">  1       21 0.11201333E+00 0.39626614E+03</pdfrwt>
<totfact> 0.76909182E+04</totfact>
</mgrwt>
</event>
<event>
 6    0  0.1539497E-004  0.4067142E+03  0.7546771E-02  0.1041479E+00
         21   -1    0    0  502  501  0.00000000000E+00  0.00000000000E+00  0.12370740080E+04  0.12370740080E+04  0.00000000000E+00 0.  1.
         21   -1    0    0  501  502 -0.00000000000E+00 -0.00000000000E+00 -0.33428975438E+02  0.33428975438E+02  0.00000000000E+00 0.  1.
      99925    2    1    2    0    0  0.46951535102E+02 -0.10251672838E+02  0.69936577591E+03  0.74872274211E+03  0.26298994772E+03 0.  0.
         25    1    1    2    0    0 -0.46951535102E+02  0.10251672838E+02  0.50427925664E+03  0.52178024131E+03  0.12509000000E+03 0.  0.
         25    1    3    3    0    0  0.49165247515E+02 -0.10524719999E+02  0.27450720355E+03  0.30582626472E+03  0.12509000000E+03 0.  0.
         25    1    3    3    0    0 -0.22137124125E+01  0.27304716140E+00  0.42485857236E+03  0.44289647739E+03  0.12509000000E+03 0.  0.
<mgrwt>
<rscale>  2 0.40671423E+03</rscale>
<asrwt>0</asrwt>
<pdfrwt beam="1">  1       21 0.18192262E+00 0.40671423E+03</pdfrwt>
<pdfrwt beam="2">  1       21 0.49160266E-02 0.40671423E+03</pdfrwt>
<totfact> 0.44494918E+04</totfact>
</mgrwt>
</event>
<event>
 6    0  0.1539497E-004  0.4960036E+03  0.7546771E-02  0.1014827E+00
         21   -1    0    0  502  501  0.00000000000E+00  0.00000000000E+00  0.15864444185E+03  0.15864444185E+03  0.00000000000E+00 0.  1.
         21   -1    0    0  501  502 -0.00000000000E+00 -0.00000000000E+00 -0.38769024225E+03  0.38769024225E+03  0.00000000000E+00 0.  1.
      99925    2    1    2    0    0 -0.10015909262E+02  0.23700343668E+02  0.21359833850E+02  0.26524303625E+03  0.26312658750E+03 0.  0.
         25    1    3    3    0    0  0.29204855880E+02  0.47113922473E+01 -0.10608418959E+02  0.12897739134E+03  0.12509000000E+03 0.  0.
         25    1    1    2    0    0  0.10015909262E+02 -0.23700343668E+02 -0.25040563425E+03  0.28109164785E+03  0.12509000000E+03 0.  0.
         25    1    3    3    0    0 -0.39220765142E+02  0.18988951421E+02  0.31968252809E+02  0.13626564491E+03  0.12509000000E+03 0.  0.
<mgrwt>
<rscale>  2 0.49600364E+03</rscale>
<asrwt>0</asrwt>
<pdfrwt beam="1">  1       21 0.23330065E-01 0.49600364E+03</pdfrwt>
<pdfrwt beam="2">  1       21 0.57013271E-01 0.49600364E+03</pdfrwt>
<totfact> 0.45445245E+04</totfact>
</mgrwt>
</event>
<event>
 6    0  0.1539497E-004  0.4994477E+03  0.7546771E-02  0.1013923E+00
         21   -1    0    0  502  501  0.00000000000E+00  0.00000000000E+00  0.80745752195E+02  0.80745752195E+02  0.00000000000E+00 0. -1.
         21   -1    0    0  501  502 -0.00000000000E+00 -0.00000000000E+00 -0.77232536175E+03  0.77232536175E+03  0.00000000000E+00 0. -1.
      99925    2    1    2    0    0  0.14689918456E+03  0.34428645451E+00 -0.48033854426E+03  0.56697710016E+03  0.26297989665E+03 0.  0.
         25    1    3    3    0    0  0.10669030650E+03 -0.28039695732E+02 -0.26271784440E+03  0.31118679263E+03  0.12509000000E+03 0.  0.
         25    1    3    3    0    0  0.40208878060E+02  0.28383982186E+02 -0.21762069986E+03  0.25579030753E+03  0.12509000000E+03 0.  0.
         25    1    1    2    0    0 -0.14689918456E+03 -0.34428645451E+00 -0.21124106530E+03  0.28609401379E+03  0.12509000000E+03 0.  0.
<mgrwt>
<rscale>  2 0.49944766E+03</rscale>
<asrwt>0</asrwt>
<pdfrwt beam="1">  1       21 0.11874376E-01 0.49944766E+03</pdfrwt>
<pdfrwt beam="2">  1       21 0.11357725E+00 0.49944766E+03</pdfrwt>
<totfact> 0.32427946E+04</totfact>
</mgrwt>
</event>
<event>
 6    0  0.1539497E-004  0.4592001E+03  0.7546771E-02  0.1025013E+00
         21   -1    0    0  502  501  0.00000000000E+00  0.00000000000E+00  0.54540855170E+03  0.54540855170E+03  0.00000000000E+00 0.  1.
         21   -1    0    0  501  502 -0.00000000000E+00 -0.00000000000E+00 -0.96654490900E+02  0.96654490900E+02  0.00000000000E+00 0.  1.
      99925    2    1    2    0    0  0.56861376504E+02  0.10136235177E+03  0.30037731505E+03  0.41585360585E+03  0.26305920932E+03 0.  0.
         25    1    3    3    0    0  0.25428965289E+02  0.25846747085E+02  0.92161263596E+02  0.15954903077E+03  0.12509000000E+03 0.  0.
         25    1    3    3    0    0  0.31432411216E+02  0.75515604686E+02  0.20821605146E+03  0.25630457509E+03  0.12509000000E+03 0.  0.
         25    1    1    2    0    0 -0.56861376504E+02 -0.10136235177E+03  0.14837674574E+03  0.22620943674E+03  0.12509000000E+03 0.  0.
<mgrwt>
<rscale>  2 0.45920011E+03</rscale>
<asrwt>0</asrwt>
<pdfrwt beam="1">  1       21 0.80207138E-01 0.45920011E+03</pdfrwt>
<pdfrwt beam="2">  1       21 0.14213896E-01 0.45920011E+03</pdfrwt>
<totfact> 0.54337569E+04</totfact>
</mgrwt>
</event>
<event>
 6    0  0.1539497E-004  0.4417711E+03  0.7546771E-02  0.1030205E+00
         21   -1    0    0  502  501  0.00000000000E+00  0.00000000000E+00  0.56491433708E+03  0.56491433708E+03  0.00000000000E+00 0. -1.
         21   -1    0    0  501  502 -0.00000000000E+00 -0.00000000000E+00 -0.86367847318E+02  0.86367847318E+02  0.00000000000E+00 0. -1.
      99925    2    1    2    0    0  0.74269060429E+02  0.42910852676E+02  0.38145070395E+03  0.47119238919E+03  0.26298363728E+03 0.  0.
         25    1    1    2    0    0 -0.74269060429E+02 -0.42910852676E+02  0.97095785815E+02  0.18008979521E+03  0.12509000000E+03 0.  0.
         25    1    3    3    0    0  0.32309170239E+02 -0.38795111365E+01  0.12952498819E+03  0.18298405328E+03  0.12509000000E+03 0.  0.
         25    1    3    3    0    0  0.41959890190E+02  0.46790363813E+02  0.25192571576E+03  0.28820833592E+03  0.12509000000E+03 0.  0.
<mgrwt>
<rscale>  2 0.44177114E+03</rscale>
<asrwt>0</asrwt>
<pdfrwt beam="1">  1       21 0.83075636E-01 0.44177114E+03</pdfrwt>
<pdfrwt beam="2">  1       21 0.12701154E-01 0.44177114E+03</pdfrwt>
<totfact> 0.61830013E+04</totfact>
</mgrwt>
</event>
<event>
 6    0  0.1539497E-004  0.4739545E+03  0.7546771E-02  0.1020810E+00
         21   -1    0    0  502  501  0.00000000000E+00  0.00000000000E+00  0.52362196251E+02  0.52362196251E+02  0.00000000000E+00 0. -1.
         21   -1    0    0  501  502 -0.00000000000E+00 -0.00000000000E+00 -0.10724952284E+04  0.10724952284E+04  0.00000000000E+00 0. -1.
      99925    2    1    2    0    0  0.95552117693E+02 -0.61969890633E+02 -0.48117650336E+03  0.55997502754E+03  0.26281310763E+03 0.  0.
         25    1    3    3    0    0  0.72130068146E+02 -0.66019672797E+02 -0.28026614295E+03  0.32211482877E+03  0.12509000000E+03 0.  0.
         25    1    1    2    0    0 -0.95552117693E+02  0.61969890633E+02 -0.53895652877E+03  0.56488239710E+03  0.12509000000E+03 0.  0.
         25    1    3    3    0    0  0.23422049547E+02  0.40497821632E+01 -0.20091036041E+03  0.23786019877E+03  0.12509000000E+03 0.  0.
<mgrwt>
<rscale>  2 0.47395445E+03</rscale>
<asrwt>0</asrwt>
<pdfrwt beam="1">  1       21 0.77003230E-02 0.47395445E+03</pdfrwt>
<pdfrwt beam="2">  1       21 0.15771989E+00 0.47395445E+03</pdfrwt>
<totfact> 0.29955651E+04</totfact>
</mgrwt>
</event>
<event>
 6    0  0.1539497E-004  0.4030233E+03  0.7546771E-02  0.1042738E+00
         21   -1    0    0  502  501  0.00000000000E+00  0.00000000000E+00  0.10664839172E+03  0.10664839172E+03  0.00000000000E+00 0. -1.
         21   -1    0    0  501  502 -0.00000000000E+00 -0.00000000000E+00 -0.38075541316E+03  0.38075541316E+03  0.00000000000E+00 0. -1.
      99925    2    1    2    0    0 -0.27918530692E+02  0.51172079467E+01 -0.23410663251E+03  0.35304172173E+03  0.26272973133E+03 0.  0.
         25    1    3    3    0    0 -0.41770550223E+02 -0.26229703561E+02 -0.11441012263E+03  0.17655016419E+03  0.12509000000E+03 0.  0.
         25    1    3    3    0    0  0.13852019531E+02  0.31346911507E+02 -0.11969650988E+03  0.17649155754E+03  0.12509000000E+03 0.  0.
         25    1    1    2    0    0  0.27918530692E+02 -0.51172079467E+01 -0.40000388932E+02  0.13436208315E+03  0.12509000000E+03 0.  0.
<mgrwt>
<rscale>  2 0.40302334E+03</rscale>
<asrwt>0</asrwt>
<pdfrwt beam="1">  1       21 0.15683587E-01 0.40302334E+03</pdfrwt>
<pdfrwt beam="2">  1       21 0.55993443E-01 0.40302334E+03</pdfrwt>
<totfact> 0.10224611E+05</totfact>
</mgrwt>
</event>
<event>
 6    0  0.1539497E-004  0.5289873E+03  0.7546771E-02  0.1006478E+00
         21   -1    0    0  502  501  0.00000000000E+00  0.00000000000E+00  0.81877086703E+03  0.81877086703E+03  0.00000000000E+00 0. -1.
         21   -1    0    0  501  502 -0.00000000000E+00 -0.00000000000E+00 -0.85441343206E+02  0.85441343206E+02  0.00000000000E+00 0. -1.
      99925    2    1    2    0    0  0.13367371576E+03 -0.11040303873E+03  0.42344274486E+03  0.52773536218E+03  0.26295125227E+03 0.  0.
         25    1    3    3    0    0  0.84766235769E+02 -0.95481365794E+02  0.26255704675E+03  0.31762511998E+03  0.12509000000E+03 0.  0.
         25    1    3    3    0    0  0.48907479992E+02 -0.14921672939E+02  0.16088569811E+03  0.21011024220E+03  0.12509000000E+03 0.  0.
         25    1    1    2    0    0 -0.13367371576E+03  0.11040303873E+03  0.30988677896E+03  0.37647684806E+03  0.12509000000E+03 0.  0.
<mgrwt>
<rscale>  2 0.52898727E+03</rscale>
<asrwt>0</asrwt>
<pdfrwt beam="1">  1       21 0.12040748E+00 0.52898727E+03</pdfrwt>
<pdfrwt beam="2">  1       21 0.12564904E-01 0.52898727E+03</pdfrwt>
<totfact> 0.25065124E+04</totfact>
</mgrwt>
</event>
<event>
 6    0  0.1539497E-004  0.4370931E+03  0.7546771E-02  0.1031642E+00
         21   -1    0    0  502  501  0.00000000000E+00  0.00000000000E+00  0.57050758650E+02  0.57050758650E+02  0.00000000000E+00 0.  1.
         21   -1    0    0  501  502 -0.00000000000E+00 -0.00000000000E+00 -0.83719477204E+03  0.83719477204E+03  0.00000000000E+00 0.  1.
      99925    2    1    2    0    0  0.22101043104E+02 -0.89628567886E+02 -0.45028996651E+03  0.52959098645E+03  0.26302817854E+03 0.  0.
         25    1    3    3    0    0  0.21808050952E+02 -0.71917707337E+02 -0.18393310206E+03  0.23479063408E+03  0.12509000000E+03 0.  0.
         25    1    3    3    0    0  0.29299215131E+00 -0.17710860549E+02 -0.26635686444E+03  0.29480035238E+03  0.12509000000E+03 0.  0.
         25    1    1    2    0    0 -0.22101043104E+02  0.89628567886E+02 -0.32985404688E+03  0.36465454423E+03  0.12509000000E+03 0.  0.
<mgrwt>
<rscale>  2 0.43709311E+03</rscale>
<asrwt>0</asrwt>
<pdfrwt beam="1">  1       21 0.83898177E-02 0.43709311E+03</pdfrwt>
<pdfrwt beam="2">  1       21 0.12311687E+00 0.43709311E+03</pdfrwt>
<totfact> 0.50151538E+04</totfact>
</mgrwt>
</event>
<event>
 5    0  0.1539497E-004  0.4211307E+03  0.7546771E-02  0.1036699E+00
         21   -1    0    0  502  501  0.00000000000E+00  0.00000000000E+00  0.47043705701E+03  0.47043705701E+03  0.00000000000E+00 0.  1.
         21   -1    0    0  501  502 -0.00000000000E+00 -0.00000000000E+00 -0.94248009308E+02  0.94248009308E+02  0.00000000000E+00 0.  1.
         25    1    1    2    0    0 -0.35707525583E+02 -0.50816609297E+02  0.68830802652E+02  0.15570016910E+03  0.12509000000E+03 0.  0.
         25    1    1    2    0    0  0.38362958994E+02  0.44319470221E+02  0.20499964801E+03  0.24720092202E+03  0.12509000000E+03 0.  0.
         25    1    1    2    0    0 -0.26554334107E+01  0.64971390764E+01  0.10235859703E+03  0.16178397519E+03  0.12509000000E+03 0.  0.
<mgrwt>
<rscale>  2 0.42113065E+03</rscale>
<asrwt>0</asrwt>
<pdfrwt beam="1">  1       21 0.69181919E-01 0.42113065E+03</pdfrwt>
<pdfrwt beam="2">  1       21 0.13860002E-01 0.42113065E+03</pdfrwt>
<totfact> 0.80364637E+04</totfact>
</mgrwt>
</event>
<event>
 5    0  0.1539497E-004  0.5280131E+03  0.7546771E-02  0.1006715E+00
         21   -1    0    0  502  501  0.00000000000E+00  0.00000000000E+00  0.10508973911E+04  0.10508973911E+04  0.00000000000E+00 0. -1.
         21   -1    0    0  501  502 -0.00000000000E+00 -0.00000000000E+00 -0.66323757709E+02  0.66323757709E+02  0.00000000000E+00 0. -1.
         25    1    1    2    0    0  0.39999863605E+02  0.52661360345E+02  0.13695159931E+03  0.19691738525E+03  0.12509000000E+03 0.  0.
         25    1    1    2    0    0  0.11556895381E+02  0.35501951123E+02  0.12815078164E+03  0.18293190345E+03  0.12509000000E+03 0.  0.
         25    1    1    2    0    0 -0.51556758986E+02 -0.88163311468E+02  0.71947125242E+03  0.73737186009E+03  0.12509000000E+03 0.  0.
<mgrwt>
<rscale>  2 0.52801312E+03</rscale>
<asrwt>0</asrwt>
<pdfrwt beam="1">  1       21 0.15454372E+00 0.52801312E+03</pdfrwt>
<pdfrwt beam="2">  1       21 0.97534944E-02 0.52801312E+03</pdfrwt>
<totfact> 0.20496964E+04</totfact>
</mgrwt>
</event>
<event>
 6    0  0.1539497E-004  0.3909892E+03  0.7546771E-02  0.1046945E+00
         21   -1    0    0  502  501  0.00000000000E+00  0.00000000000E+00  0.46115026955E+02  0.46115026955E+02  0.00000000000E+00 0. -1.
         21   -1    0    0  501  502 -0.00000000000E+00 -0.00000000000E+00 -0.82875681647E+03  0.82875681647E+03  0.00000000000E+00 0. -1.
      99925    2    1    2    0    0 -0.20783035797E+02  0.74183992684E+01 -0.53490532133E+03  0.59646955716E+03  0.26299289461E+03 0.  0.
         25    1    1    2    0    0  0.20783035797E+02 -0.74183992684E+01 -0.24773646819E+03  0.27840228626E+03  0.12509000000E+03 0.  0.
         25    1    3    3    0    0 -0.42515410627E+02  0.57167339965E+01 -0.21666828114E+03  0.25383635150E+03  0.12509000000E+03 0.  0.
         25    1    3    3    0    0  0.21732374829E+02  0.17016652719E+01 -0.31823704018E+03  0.34263320566E+03  0.12509000000E+03 0.  0.
<mgrwt>
<rscale>  2 0.39098922E+03</rscale>
<asrwt>0</asrwt>
<pdfrwt beam="1">  1       21 0.67816216E-02 0.39098922E+03</pdfrwt>
<pdfrwt beam="2">  1       21 0.12187600E+00 0.39098922E+03</pdfrwt>
<totfact> 0.75760559E+04</totfact>
</mgrwt>
</event>
<event>
 6    0  0.1539497E-004  0.4066523E+03  0.7546771E-02  0.1041500E+00
         21   -1    0    0  502  501  0.00000000000E+00  0.00000000000E+00  0.33782301026E+02  0.33782301026E+02  0.00000000000E+00 0. -1.
         21   -1    0    0  501  502 -0.00000000000E+00 -0.00000000000E+00 -0.12237629421E+04  0.12237629421E+04  0.00000000000E+00 0. -1.
      99925    2    1    2    0    0 -0.53383634143E+02  0.13966325476E+02 -0.73998691371E+03  0.78724030651E+03  0.26291024530E+03 0.  0.
         25    1    3    3    0    0 -0.45986383004E+01 -0.22212067442E+02 -0.40674180632E+03  0.42614660449E+03  0.12509000000E+03 0.  0.
         25    1    1    2    0    0  0.53383634143E+02 -0.13966325476E+02 -0.44999372738E+03  0.47030493663E+03  0.12509000000E+03 0.  0.
         25    1    3    3    0    0 -0.48784995843E+02  0.36178392918E+02 -0.33324510740E+03  0.36109370202E+03  0.12509000000E+03 0.  0.
<mgrwt>
<rscale>  2 0.40665232E+03</rscale>
<asrwt>0</asrwt>
<pdfrwt beam="1">  1       21 0.49679870E-02 0.40665232E+03</pdfrwt>
<pdfrwt beam="2">  1       21 0.17996508E+00 0.40665232E+03</pdfrwt>
<totfact> 0.45099077E+04</totfact>
</mgrwt>
</event>
<event>
 6    0  0.1539497E-004  0.4039256E+03  0.7546771E-02  0.1042429E+00
         21   -1    0    0  502  501  0.00000000000E+00  0.00000000000E+00  0.94855398784E+03  0.94855398784E+03  0.00000000000E+00 0. -1.
         21   -1    0    0  501  502 -0.00000000000E+00 -0.00000000000E+00 -0.43001217628E+02  0.43001217628E+02  0.00000000000E+00 0. -1.
      99925    2    1    2    0    0  0.11704106705E+02 -0.32614035989E+02  0.50422050808E+03  0.56975459596E+03  0.26302341604E+03 0.  0.
         25    1    1    2    0    0 -0.11704106705E+02  0.32614035989E+02  0.40133226213E+03  0.42180060951E+03  0.12509000000E+03 0.  0.
         25    1    3    3    0    0 -0.14078829078E+02 -0.51278832622E+02  0.27206488288E+03  0.30412915134E+03  0.12509000000E+03 0.  0.
         25    1    3    3    0    0  0.25782935783E+02  0.18664796633E+02  0.23215562521E+03  0.26562544461E+03  0.12509000000E+03 0.  0.
<mgrwt>
<rscale>  2 0.40392562E+03</rscale>
<asrwt>0</asrwt>
<pdfrwt beam="1">  1       21 0.13949322E+00 0.40392562E+03</pdfrwt>
<pdfrwt beam="2">  1       21 0.63237091E-02 0.40392562E+03</pdfrwt>
<totfact> 0.60141531E+04</totfact>
</mgrwt>
</event>
<event>
 6    0  0.1539497E-004  0.4471645E+03  0.7546771E-02  0.1028571E+00
         21   -1    0    0  502  501  0.00000000000E+00  0.00000000000E+00  0.11221259700E+03  0.11221259700E+03  0.00000000000E+00 0.  1.
         21   -1    0    0  501  502 -0.00000000000E+00 -0.00000000000E+00 -0.44548490054E+03  0.44548490054E+03  0.00000000000E+00 0.  1.
      99925    2    1    2    0    0 -0.40099637335E+02 -0.88538498551E+02 -0.26304040997E+03  0.38441427961E+03  0.26293922197E+03 0.  0.
         25    1    1    2    0    0  0.40099637335E+02  0.88538498551E+02 -0.70231893572E+02  0.17328321793E+03  0.12509000000E+03 0.  0.
         25    1    3    3    0    0 -0.47744831087E+02 -0.61386664735E+02 -0.10496150784E+03  0.18086546860E+03  0.12509000000E+03 0.  0.
         25    1    3    3    0    0  0.76451937518E+01 -0.27151833816E+02 -0.15807890213E+03  0.20354881102E+03  0.12509000000E+03 0.  0.
<mgrwt>
<rscale>  2 0.44716448E+03</rscale>
<asrwt>0</asrwt>
<pdfrwt beam="1">  1       21 0.16501853E-01 0.44716448E+03</pdfrwt>
<pdfrwt beam="2">  1       21 0.65512483E-01 0.44716448E+03</pdfrwt>
<totfact> 0.65315872E+04</totfact>
</mgrwt>
</event>
<event>
 6    0  0.1539497E-004  0.4619776E+03  0.7546771E-02  0.1024209E+00
         21   -1    0    0  502  501  0.00000000000E+00  0.00000000000E+00  0.10276740243E+03  0.10276740243E+03  0.00000000000E+00 0.  1.
         21   -1    0    0  501  502 -0.00000000000E+00 -0.00000000000E+00 -0.51919016370E+03  0.51919016370E+03  0.00000000000E+00 0.  1.
      99925    2    1    2    0    0  0.71884305340E+02 -0.93043349594E+02 -0.23119389501E+03  0.36940725579E+03  0.26303362007E+03 0.  0.
         25    1    3    3    0    0  0.43626977125E+02 -0.66501399630E+02 -0.16784202462E+03  0.22392901245E+03  0.12509000000E+03 0.  0.
         25    1    3    3    0    0  0.28257328215E+02 -0.26541949964E+02 -0.63351870385E+02  0.14547824335E+03  0.12509000000E+03 0.  0.
         25    1    1    2    0    0 -0.71884305340E+02  0.93043349594E+02 -0.18522886626E+03  0.25255031034E+03  0.12509000000E+03 0.  0.
<mgrwt>
<rscale>  2 0.46197759E+03</rscale>
<asrwt>0</asrwt>
<pdfrwt beam="1">  1       21 0.15112854E-01 0.46197759E+03</pdfrwt>
<pdfrwt beam="2">  1       21 0.76351493E-01 0.46197759E+03</pdfrwt>
<totfact> 0.54292842E+04</totfact>
</mgrwt>
</event>
<event>
 6    0  0.1792048E-004  0.4204969E+03  0.7546771E-02  0.1036905E+00
         21   -1    0    0  502  501  0.00000000000E+00  0.00000000000E+00  0.21572949135E+03  0.21572949135E+03  0.00000000000E+00 0. -1.
         21   -1    0    0  501  502 -0.00000000000E+00 -0.00000000000E+00 -0.20490669674E+03  0.20490669674E+03  0.00000000000E+00 0. -1.
      99925    2    1    2    0    0 -0.11046863787E+02 -0.70919088625E+00  0.82716684741E+02  0.27593381876E+03  0.26301119035E+03 0.  0.
         25    1    3    3    0    0 -0.39387781649E+02  0.25002268428E+01  0.65082700874E+02  0.14642716459E+03  0.12509000000E+03 0.  0.
         25    1    3    3    0    0  0.28340917861E+02 -0.32094177290E+01  0.17633983866E+02  0.12950665417E+03  0.12509000000E+03 0.  0.
         25    1    1    2    0    0  0.11046863787E+02  0.70919088625E+00 -0.71893890128E+02  0.14470236933E+03  0.12509000000E+03 0.  0.
<mgrwt>
<rscale>  2 0.42049693E+03</rscale>
<asrwt>0</asrwt>
<pdfrwt beam="1">  1       21 0.31724925E-01 0.42049693E+03</pdfrwt>
<pdfrwt beam="2">  1       21 0.30133338E-01 0.42049693E+03</pdfrwt>
<totfact> 0.94629488E+04</totfact>
</mgrwt>
</event>
<event>
 6    0  0.1539497E-004  0.4096503E+03  0.7546771E-02  0.1040488E+00
         21   -1    0    0  502  501  0.00000000000E+00  0.00000000000E+00  0.22199005994E+03  0.22199005994E+03  0.00000000000E+00 0.  1.
         21   -1    0    0  501  502 -0.00000000000E+00 -0.00000000000E+00 -0.18898744789E+03  0.18898744789E+03  0.00000000000E+00 0.  1.
      99925    2    1    2    0    0 -0.12979212155E+02 -0.34186355697E+02  0.71652411210E+02  0.27504192772E+03  0.26301488001E+03 0.  0.
         25    1    3    3    0    0 -0.27184264511E+02 -0.27409673209E+02  0.71081732135E+02  0.14896440906E+03  0.12509000000E+03 0.  0.
         25    1    3    3    0    0  0.14205052355E+02 -0.67766824877E+01  0.57067907539E+00  0.12607751866E+03  0.12509000000E+03 0.  0.
         25    1    1    2    0    0  0.12979212155E+02  0.34186355697E+02 -0.38649799156E+02  0.13593558011E+03  0.12509000000E+03 0.  0.
<mgrwt>
<rscale>  2 0.40965026E+03</rscale>
<asrwt>0</asrwt>
<pdfrwt beam="1">  1       21 0.32645597E-01 0.40965026E+03</pdfrwt>
<pdfrwt beam="2">  1       21 0.27792272E-01 0.40965026E+03</pdfrwt>
<totfact> 0.10507543E+05</totfact>
</mgrwt>
</event>
<event>
 6    0  0.1539497E-004  0.4390978E+03  0.7546771E-02  0.1031024E+00
         21   -1    0    0  502  501  0.00000000000E+00  0.00000000000E+00  0.13647266542E+03  0.13647266542E+03  0.00000000000E+00 0. -1.
         21   -1    0    0  501  502 -0.00000000000E+00 -0.00000000000E+00 -0.35319688903E+03  0.35319688903E+03  0.00000000000E+00 0. -1.
      99925    2    1    2    0    0  0.40942646051E+02 -0.20391721460E+02 -0.42405052623E+02  0.27029133300E+03  0.26299637571E+03 0.  0.
         25    1    1    2    0    0 -0.40942646051E+02  0.20391721460E+02 -0.17431917099E+03  0.21937822145E+03  0.12509000000E+03 0.  0.
         25    1    3    3    0    0 -0.20482944512E+02 -0.10510390299E+02 -0.22702891647E+02  0.12920119469E+03  0.12509000000E+03 0.  0.
         25    1    3    3    0    0  0.61425590563E+02 -0.98813311605E+01 -0.19702160976E+02  0.14109013831E+03  0.12509000000E+03 0.  0.
<mgrwt>
<rscale>  2 0.43909781E+03</rscale>
<asrwt>0</asrwt>
<pdfrwt beam="1">  1       21 0.20069510E-01 0.43909781E+03</pdfrwt>
<pdfrwt beam="2">  1       21 0.51940719E-01 0.43909781E+03</pdfrwt>
<totfact> 0.75036794E+04</totfact>
</mgrwt>
</event>
<event>
 6    0  0.1539497E-004  0.3987958E+03  0.7546771E-02  0.1044197E+00
         21   -1    0    0  502  501  0.00000000000E+00  0.00000000000E+00  0.46502567330E+02  0.46502567330E+02  0.00000000000E+00 0. -1.
         21   -1    0    0  501  502 -0.00000000000E+00 -0.00000000000E+00 -0.85499622565E+03  0.85499622565E+03  0.00000000000E+00 0. -1.
      99925    2    1    2    0    0  0.13213614996E+02  0.27397977186E+02 -0.47223018314E+03  0.54143507415E+03  0.26310709774E+03 0.  0.
         25    1    3    3    0    0 -0.21781718103E+02  0.20958466905E+02 -0.29277245198E+03  0.31980762548E+03  0.12509000000E+03 0.  0.
         25    1    1    2    0    0 -0.13213614996E+02 -0.27397977186E+02 -0.33626347519E+03  0.36006371883E+03  0.12509000000E+03 0.  0.
         25    1    3    3    0    0  0.34995333099E+02  0.64395102813E+01 -0.17945773116E+03  0.22162744867E+03  0.12509000000E+03 0.  0.
<mgrwt>
<rscale>  2 0.39879579E+03</rscale>
<asrwt>0</asrwt>
<pdfrwt beam="1">  1       21 0.68386136E-02 0.39879579E+03</pdfrwt>
<pdfrwt beam="2">  1       21 0.12573472E+00 0.39879579E+03</pdfrwt>
<totfact> 0.68803851E+04</totfact>
</mgrwt>
</event>
<event>
 6    0  0.1539497E-004  0.4050572E+03  0.7546771E-02  0.1042042E+00
         21   -1    0    0  502  501  0.00000000000E+00  0.00000000000E+00  0.20023828066E+03  0.20023828066E+03  0.00000000000E+00 0.  1.
         21   -1    0    0  501  502 -0.00000000000E+00 -0.00000000000E+00 -0.20484516442E+03  0.20484516442E+03  0.00000000000E+00 0.  1.
      99925    2    1    2    0    0  0.43035306347E+02  0.33545475956E+02 -0.27070560961E+01  0.26859735057E+03  0.26298264587E+03 0.  0.
         25    1    1    2    0    0 -0.43035306347E+02 -0.33545475956E+02 -0.18998276607E+01  0.13648609451E+03  0.12509000000E+03 0.  0.
         25    1    3    3    0    0  0.61102294154E+02  0.16676451410E+02 -0.12168873964E+02  0.14073799763E+03  0.12509000000E+03 0.  0.
         25    1    3    3    0    0 -0.18066987807E+02  0.16869024547E+02  0.94618178683E+01  0.12785935294E+03  0.12509000000E+03 0.  0.
<mgrwt>
<rscale>  2 0.40505725E+03</rscale>
<asrwt>0</asrwt>
<pdfrwt beam="1">  1       21 0.29446806E-01 0.40505725E+03</pdfrwt>
<pdfrwt beam="2">  1       21 0.30124289E-01 0.40505725E+03</pdfrwt>
<totfact> 0.11013945E+05</totfact>
</mgrwt>
</event>
<event>
 6    0  0.1539497E-004  0.3902483E+03  0.7546771E-02  0.1047210E+00
         21   -1    0    0  502  501  0.00000000000E+00  0.00000000000E+00  0.27654343855E+02  0.27654343855E+02  0.00000000000E+00 0. -1.
         21   -1    0    0  501  502 -0.00000000000E+00 -0.00000000000E+00 -0.13767613142E+04  0.13767613142E+04  0.00000000000E+00 0. -1.
      99925    2    1    2    0    0  0.13822577408E+01  0.17120617359E+02 -0.94289070489E+03  0.97902855365E+03  0.26298099041E+03 0.  0.
         25    1    3    3    0    0  0.43428417003E+01 -0.15726245786E+02 -0.58575720681E+03  0.59918710643E+03  0.12509000000E+03 0.  0.
         25    1    1    2    0    0 -0.13822577408E+01 -0.17120617359E+02 -0.40621626548E+03  0.42538710443E+03  0.12509000000E+03 0.  0.
         25    1    3    3    0    0 -0.29605839596E+01  0.32846863145E+02 -0.35713349809E+03  0.37984144723E+03  0.12509000000E+03 0.  0.
<mgrwt>
<rscale>  2 0.39024828E+03</rscale>
<asrwt>0</asrwt>
<pdfrwt beam="1">  1       21 0.40668158E-02 0.39024828E+03</pdfrwt>
<pdfrwt beam="2">  1       21 0.20246487E+00 0.39024828E+03</pdfrwt>
<totfact> 0.44922843E+04</totfact>
</mgrwt>
</event>
<event>
 6    0  0.1539497E-004  0.4123590E+03  0.7546771E-02  0.1039582E+00
         21   -1    0    0  502  501  0.00000000000E+00  0.00000000000E+00  0.80897673862E+02  0.80897673862E+02  0.00000000000E+00 0.  1.
         21   -1    0    0  501  502 -0.00000000000E+00 -0.00000000000E+00 -0.52547846516E+03  0.52547846516E+03  0.00000000000E+00 0.  1.
      99925    2    1    2    0    0  0.40325853174E+01 -0.55288069281E+02 -0.24056793378E+03  0.36073048675E+03  0.26302190205E+03 0.  0.
         25    1    1    2    0    0 -0.40325853174E+01  0.55288069281E+02 -0.20401285752E+03  0.24564565227E+03  0.12509000000E+03 0.  0.
         25    1    3    3    0    0 -0.10510321540E+02  0.71844879937E+00 -0.15096783057E+03  0.19634097126E+03  0.12509000000E+03 0.  0.
         25    1    3    3    0    0  0.14542906858E+02 -0.56006518081E+02 -0.89600103211E+02  0.16438951549E+03  0.12509000000E+03 0.  0.
<mgrwt>
<rscale>  2 0.41235900E+03</rscale>
<asrwt>0</asrwt>
<pdfrwt beam="1">  1       21 0.11896717E-01 0.41235900E+03</pdfrwt>
<pdfrwt beam="2">  1       21 0.77276243E-01 0.41235900E+03</pdfrwt>
<totfact> 0.82854686E+04</totfact>
</mgrwt>
</event>
<event>
 6    0  0.1539497E-004  0.4547066E+03  0.7546771E-02  0.1026328E+00
         21   -1    0    0  502  501  0.00000000000E+00  0.00000000000E+00  0.32295990725E+03  0.32295990725E+03  0.00000000000E+00 0. -1.
         21   -1    0    0  501  502 -0.00000000000E+00 -0.00000000000E+00 -0.16004932108E+03  0.16004932108E+03  0.00000000000E+00 0. -1.
      99925    2    1    2    0    0 -0.25363347086E+02  0.48195007103E+01  0.21924526345E+03  0.34341112330E+03  0.26305168142E+03 0.  0.
         25    1    1    2    0    0  0.25363347086E+02 -0.48195007103E+01 -0.56334677279E+02  0.13959810503E+03  0.12509000000E+03 0.  0.
         25    1    3    3    0    0 -0.90244487026E+01  0.42703448725E+02  0.11492718035E+03  0.17538754258E+03  0.12509000000E+03 0.  0.
         25    1    3    3    0    0 -0.16338898384E+02 -0.37883948014E+02  0.10431808310E+03  0.16802358072E+03  0.12509000000E+03 0.  0.
<mgrwt>
<rscale>  2 0.45470656E+03</rscale>
<asrwt>0</asrwt>
<pdfrwt beam="1">  1       21 0.47494104E-01 0.45470656E+03</pdfrwt>
<pdfrwt beam="2">  1       21 0.23536665E-01 0.45470656E+03</pdfrwt>
<totfact> 0.66636783E+04</totfact>
</mgrwt>
</event>
<event>
 5    0  0.1539497E-004  0.5979354E+03  0.7546771E-02  0.9909699E-01
         21   -1    0    0  502  501  0.00000000000E+00  0.00000000000E+00  0.67305023693E+03  0.67305023693E+03  0.00000000000E+00 0.  1.
         21   -1    0    0  501  502 -0.00000000000E+00 -0.00000000000E+00 -0.13280092590E+03  0.13280092590E+03  0.00000000000E+00 0.  1.
         25    1    1    2    0    0 -0.67041619649E+02 -0.20038738385E+03  0.13740712972E+03  0.28138569574E+03  0.12509000000E+03 0.  0.
         25    1    1    2    0    0  0.17113649211E+02  0.57322145648E+02  0.15034184410E+03  0.20452110785E+03  0.12509000000E+03 0.  0.
         25    1    1    2    0    0  0.49927970437E+02  0.14306523820E+03  0.25250033722E+03  0.31994435924E+03  0.12509000000E+03 0.  0.
<mgrwt>
<rscale>  2 0.59793543E+03</rscale>
<asrwt>0</asrwt>
<pdfrwt beam="1">  1       21 0.98977975E-01 0.59793543E+03</pdfrwt>
<pdfrwt beam="2">  1       21 0.19529548E-01 0.59793543E+03</pdfrwt>
<totfact> 0.17646429E+04</totfact>
</mgrwt>
</event>
<event>
 6    0  0.1539497E-004  0.4994118E+03  0.7546771E-02  0.1013933E+00
         21   -1    0    0  502  501  0.00000000000E+00  0.00000000000E+00  0.49406223249E+03  0.49406223249E+03  0.00000000000E+00 0.  1.
         21   -1    0    0  501  502 -0.00000000000E+00 -0.00000000000E+00 -0.12620482686E+03  0.12620482686E+03  0.00000000000E+00 0.  1.
      99925    2    1    2    0    0 -0.79090960605E+02 -0.88240522607E+02  0.10711106193E+03  0.30773236731E+03  0.26302977098E+03 0.  0.
         25    1    3    3    0    0 -0.63306373755E+02 -0.62792791913E+02  0.89825678101E+02  0.17795165698E+03  0.12509000000E+03 0.  0.
         25    1    1    2    0    0  0.79090960605E+02  0.88240522607E+02  0.26074634370E+03  0.31253469205E+03  0.12509000000E+03 0.  0.
         25    1    3    3    0    0 -0.15784586850E+02 -0.25447730694E+02  0.17285383829E+02  0.12978071033E+03  0.12509000000E+03 0.  0.
<mgrwt>
<rscale>  2 0.49941181E+03</rscale>
<asrwt>0</asrwt>
<pdfrwt beam="1">  1       21 0.72656210E-01 0.49941181E+03</pdfrwt>
<pdfrwt beam="2">  1       21 0.18559534E-01 0.49941181E+03</pdfrwt>
<totfact> 0.41042030E+04</totfact>
</mgrwt>
</event>
<event>
 6    0  0.1539497E-004  0.4138514E+03  0.7546771E-02  0.1039086E+00
         21   -1    0    0  502  501  0.00000000000E+00  0.00000000000E+00  0.37754874586E+03  0.37754874586E+03  0.00000000000E+00 0.  1.
         21   -1    0    0  501  502 -0.00000000000E+00 -0.00000000000E+00 -0.11341114643E+03  0.11341114643E+03  0.00000000000E+00 0.  1.
      99925    2    1    2    0    0  0.51013125320E+02 -0.29646926674E+02  0.21288173588E+03  0.34346090632E+03  0.26299331072E+03 0.  0.
         25    1    3    3    0    0  0.40166159469E+02  0.25796891684E+01  0.64344563519E+02  0.14631372498E+03  0.12509000000E+03 0.  0.
         25    1    1    2    0    0 -0.51013125320E+02  0.29646926674E+02  0.51255863551E+02  0.14749898598E+03  0.12509000000E+03 0.  0.
         25    1    3    3    0    0  0.10846965851E+02 -0.32226615842E+02  0.14853717236E+03  0.19714718134E+03  0.12509000000E+03 0.  0.
<mgrwt>
<rscale>  2 0.41385136E+03</rscale>
<asrwt>0</asrwt>
<pdfrwt beam="1">  1       21 0.55521874E-01 0.41385136E+03</pdfrwt>
<pdfrwt beam="2">  1       21 0.16678110E-01 0.41385136E+03</pdfrwt>
<totfact> 0.92653830E+04</totfact>
</mgrwt>
</event>
<event>
 6    0  0.1539497E-004  0.4176805E+03  0.7546771E-02  0.1037824E+00
         21   -1    0    0  502  501  0.00000000000E+00  0.00000000000E+00  0.64935796222E+02  0.64935796222E+02  0.00000000000E+00 0.  1.
         21   -1    0    0  501  502 -0.00000000000E+00 -0.00000000000E+00 -0.67165183779E+03  0.67165183779E+03  0.00000000000E+00 0.  1.
      99925    2    1    2    0    0 -0.60804231300E+02 -0.27984643305E+02 -0.44723158473E+03  0.52313249849E+03  0.26300423152E+03 0.  0.
         25    1    3    3    0    0 -0.21282162776E+02 -0.21149280690E+01 -0.14529254460E+03  0.19291146931E+03  0.12509000000E+03 0.  0.
         25    1    3    3    0    0 -0.39522068524E+02 -0.25869715236E+02 -0.30193904012E+03  0.33022102919E+03  0.12509000000E+03 0.  0.
         25    1    1    2    0    0  0.60804231300E+02  0.27984643305E+02 -0.15948445684E+03  0.21345513552E+03  0.12509000000E+03 0.  0.
<mgrwt>
<rscale>  2 0.41768048E+03</rscale>
<asrwt>0</asrwt>
<pdfrwt beam="1">  1       21 0.95493818E-02 0.41768048E+03</pdfrwt>
<pdfrwt beam="2">  1       21 0.98772329E-01 0.41768048E+03</pdfrwt>
<totfact> 0.69116222E+04</totfact>
</mgrwt>
</event>
<event>
 6    0  0.1539497E-004  0.4188912E+03  0.7546771E-02  0.1037428E+00
         21   -1    0    0  502  501  0.00000000000E+00  0.00000000000E+00  0.13509461133E+03  0.13509461133E+03  0.00000000000E+00 0. -1.
         21   -1    0    0  501  502 -0.00000000000E+00 -0.00000000000E+00 -0.32471664824E+03  0.32471664824E+03  0.00000000000E+00 0. -1.
      99925    2    1    2    0    0  0.10194732763E+02 -0.26481012914E+02 -0.48193872807E+02  0.26888035500E+03  0.26299965648E+03 0.  0.
         25    1    3    3    0    0 -0.20760120707E+02  0.17461544798E+02 -0.16165338904E+02  0.12901439625E+03  0.12509000000E+03 0.  0.
         25    1    1    2    0    0 -0.10194732763E+02  0.26481012914E+02 -0.14142816410E+03  0.19093090458E+03  0.12509000000E+03 0.  0.
         25    1    3    3    0    0  0.30954853470E+02 -0.43942557712E+02 -0.32028533903E+02  0.13986595874E+03  0.12509000000E+03 0.  0.
<mgrwt>
<rscale>  2 0.41889125E+03</rscale>
<asrwt>0</asrwt>
<pdfrwt beam="1">  1       21 0.19866855E-01 0.41889125E+03</pdfrwt>
<pdfrwt beam="2">  1       21 0.47752448E-01 0.41889125E+03</pdfrwt>
<totfact> 0.91828708E+04</totfact>
</mgrwt>
</event>
<event>
 6    0  0.1539497E-004  0.4060553E+03  0.7546771E-02  0.1041703E+00
         21   -1    0    0  502  501  0.00000000000E+00  0.00000000000E+00  0.12483975309E+03  0.12483975309E+03  0.00000000000E+00 0. -1.
         21   -1    0    0  501  502 -0.00000000000E+00 -0.00000000000E+00 -0.33018506005E+03  0.33018506005E+03  0.00000000000E+00 0. -1.
      99925    2    1    2    0    0  0.52973486571E+02  0.36826148007E+01 -0.11554941627E+03  0.29214276374E+03  0.26301325989E+03 0.  0.
         25    1    3    3    0    0  0.55092363126E+02  0.17559660380E+02 -0.87311922607E+02  0.16313917395E+03  0.12509000000E+03 0.  0.
         25    1    1    2    0    0 -0.52973486571E+02 -0.36826148007E+01 -0.89795890695E+02  0.16288204940E+03  0.12509000000E+03 0.  0.
         25    1    3    3    0    0 -0.21188765554E+01 -0.13877045579E+02 -0.28237493661E+02  0.12900358980E+03  0.12509000000E+03 0.  0.
<mgrwt>
<rscale>  2 0.40605527E+03</rscale>
<asrwt>0</asrwt>
<pdfrwt beam="1">  1       21 0.18358787E-01 0.40605527E+03</pdfrwt>
<pdfrwt beam="2">  1       21 0.48556626E-01 0.40605527E+03</pdfrwt>
<totfact> 0.10319302E+05</totfact>
</mgrwt>
</event>
<event>
 6    0  0.1539497E-004  0.4941915E+03  0.7546771E-02  0.1015306E+00
         21   -1    0    0  502  501  0.00000000000E+00  0.00000000000E+00  0.25031066297E+03  0.25031066297E+03  0.00000000000E+00 0. -1.
         21   -1    0    0  501  502 -0.00000000000E+00 -0.00000000000E+00 -0.24392214463E+03  0.24392214463E+03  0.00000000000E+00 0. -1.
      99925    2    1    2    0    0  0.15828512853E+02  0.13716145607E+03 -0.46332476506E+02  0.30060734893E+03  0.26297200041E+03 0.  0.
         25    1    3    3    0    0 -0.94281310127E+01  0.50326108689E+02  0.11777376836E+02  0.13567542731E+03  0.12509000000E+03 0.  0.
         25    1    1    2    0    0 -0.15828512853E+02 -0.13716145607E+03  0.52720994849E+02  0.19362545868E+03  0.12509000000E+03 0.  0.
         25    1    3    3    0    0  0.25256643865E+02  0.86835347380E+02 -0.58109853342E+02  0.16493192162E+03  0.12509000000E+03 0.  0.
<mgrwt>
<rscale>  2 0.49419152E+03</rscale>
<asrwt>0</asrwt>
<pdfrwt beam="1">  1       21 0.36810392E-01 0.49419152E+03</pdfrwt>
<pdfrwt beam="2">  1       21 0.35870904E-01 0.49419152E+03</pdfrwt>
<totfact> 0.48668108E+04</totfact>
</mgrwt>
</event>
<event>
 6    0  0.1539497E-004  0.4255100E+03  0.7546771E-02  0.1035288E+00
         21   -1    0    0  502  501  0.00000000000E+00  0.00000000000E+00  0.14523738172E+03  0.14523738172E+03  0.00000000000E+00 0.  1.
         21   -1    0    0  501  502 -0.00000000000E+00 -0.00000000000E+00 -0.31166005545E+03  0.31166005545E+03  0.00000000000E+00 0.  1.
      99925    2    1    2    0    0 -0.56176327178E+02 -0.46700207432E+02 -0.15036959208E+03  0.31115142988E+03  0.26242619722E+03 0.  0.
         25    1    1    2    0    0  0.56176327178E+02  0.46700207432E+02 -0.16053081656E+02  0.14574600729E+03  0.12509000000E+03 0.  0.
         25    1    3    3    0    0 -0.18786004962E+02 -0.61407884307E+02 -0.86249302607E+02  0.16495542591E+03  0.12509000000E+03 0.  0.
         25    1    3    3    0    0 -0.37390322215E+02  0.14707676876E+02 -0.64120289468E+02  0.14619600397E+03  0.12509000000E+03 0.  0.
<mgrwt>
<rscale>  2 0.42551000E+03</rscale>
<asrwt>0</asrwt>
<pdfrwt beam="1">  1       21 0.21358439E-01 0.42551000E+03</pdfrwt>
<pdfrwt beam="2">  1       21 0.45832361E-01 0.42551000E+03</pdfrwt>
<totfact> 0.87087092E+04</totfact>
</mgrwt>
</event>
<event>
 6    0  0.1539497E-004  0.3951559E+03  0.7546771E-02  0.1045470E+00
         21   -1    0    0  502  501  0.00000000000E+00  0.00000000000E+00  0.12043669890E+03  0.12043669890E+03  0.00000000000E+00 0.  1.
         21   -1    0    0  501  502 -0.00000000000E+00 -0.00000000000E+00 -0.32412910633E+03  0.32412910633E+03  0.00000000000E+00 0.  1.
      99925    2    1    2    0    0  0.14595387747E+02 -0.17136215200E+02 -0.16694887356E+03  0.31226209933E+03  0.26292397585E+03 0.  0.
         25    1    3    3    0    0  0.10077194179E+02  0.27314196335E+02 -0.60143218990E+02  0.14181794687E+03  0.12509000000E+03 0.  0.
         25    1    3    3    0    0  0.45181935679E+01 -0.44450411535E+02 -0.10680565457E+03  0.17044415246E+03  0.12509000000E+03 0.  0.
         25    1    1    2    0    0 -0.14595387747E+02  0.17136215200E+02 -0.36743533866E+02  0.13230370590E+03  0.12509000000E+03 0.  0.
<mgrwt>
<rscale>  2 0.39515587E+03</rscale>
<asrwt>0</asrwt>
<pdfrwt beam="1">  1       21 0.17711279E-01 0.39515587E+03</pdfrwt>
<pdfrwt beam="2">  1       21 0.47666044E-01 0.39515587E+03</pdfrwt>
<totfact> 0.11504936E+05</totfact>
</mgrwt>
</event>
<event>
 6    0  0.1539497E-004  0.4442107E+03  0.7546771E-02  0.1029463E+00
         21   -1    0    0  502  501  0.00000000000E+00  0.00000000000E+00  0.28896958299E+03  0.28896958299E+03  0.00000000000E+00 0.  1.
         21   -1    0    0  501  502 -0.00000000000E+00 -0.00000000000E+00 -0.17071269711E+03  0.17071269711E+03  0.00000000000E+00 0.  1.
      99925    2    1    2    0    0 -0.86923579226E+02  0.53108703088E+02  0.61876514334E+02  0.28879489799E+03  0.26305426647E+03 0.  0.
         25    1    3    3    0    0 -0.69939780198E+02 -0.33341982546E+01  0.39676138922E+02  0.14874271018E+03  0.12509000000E+03 0.  0.
         25    1    1    2    0    0  0.86923579226E+02 -0.53108703088E+02  0.56380371545E+02  0.17088738211E+03  0.12509000000E+03 0.  0.
         25    1    3    3    0    0 -0.16983799028E+02  0.56442901342E+02  0.22200375413E+02  0.14005218781E+03  0.12509000000E+03 0.  0.
<mgrwt>
<rscale>  2 0.44421066E+03</rscale>
<asrwt>0</asrwt>
<pdfrwt beam="1">  1       21 0.42495527E-01 0.44421066E+03</pdfrwt>
<pdfrwt beam="2">  1       21 0.25104808E-01 0.44421066E+03</pdfrwt>
<totfact> 0.74375483E+04</totfact>
</mgrwt>
</event>
<event>
 6    0  0.1539497E-004  0.4844741E+03  0.7546771E-02  0.1017913E+00
         21   -1    0    0  502  501  0.00000000000E+00  0.00000000000E+00  0.30077940206E+03  0.30077940206E+03  0.00000000000E+00 0. -1.
         21   -1    0    0  501  502 -0.00000000000E+00 -0.00000000000E+00 -0.19508913066E+03  0.19508913066E+03  0.00000000000E+00 0. -1.
      99925    2    1    2    0    0 -0.11911536280E+03 -0.36284337153E+02  0.15133909190E+01  0.29091645708E+03  0.26291647318E+03 0.  0.
         25    1    1    2    0    0  0.11911536280E+03  0.36284337153E+02  0.10417688048E+03  0.20495207563E+03  0.12509000000E+03 0.  0.
         25    1    3    3    0    0 -0.83063053347E+02  0.96517436297E+01 -0.17830698492E+02  0.15151920306E+03  0.12509000000E+03 0.  0.
         25    1    3    3    0    0 -0.36052309457E+02 -0.45936080782E+02  0.19344089411E+02  0.13939725403E+03  0.12509000000E+03 0.  0.
<mgrwt>
<rscale>  2 0.48447412E+03</rscale>
<asrwt>0</asrwt>
<pdfrwt beam="1">  1       21 0.44232265E-01 0.48447412E+03</pdfrwt>
<pdfrwt beam="2">  1       21 0.28689578E-01 0.48447412E+03</pdfrwt>
<totfact> 0.52226992E+04</totfact>
</mgrwt>
</event>
<event>
 6    0  0.1539497E-004  0.5347948E+03  0.7546771E-02  0.1005076E+00
         21   -1    0    0  502  501  0.00000000000E+00  0.00000000000E+00  0.17709138687E+03  0.17709138687E+03  0.00000000000E+00 0.  1.
         21   -1    0    0  501  502 -0.00000000000E+00 -0.00000000000E+00 -0.40375406483E+03  0.40375406483E+03  0.00000000000E+00 0.  1.
      99925    2    1    2    0    0  0.12867565230E+03 -0.10582184537E+03 -0.20214117231E+03  0.37107295877E+03  0.26282770161E+03 0.  0.
         25    1    3    3    0    0  0.30007169894E+02 -0.22263828185E+02 -0.97602475115E+02  0.16300263660E+03  0.12509000000E+03 0.  0.
         25    1    3    3    0    0  0.98668482407E+02 -0.83558017181E+02 -0.10453869719E+03  0.20807032217E+03  0.12509000000E+03 0.  0.
         25    1    1    2    0    0 -0.12867565230E+03  0.10582184537E+03 -0.24521505661E+02  0.20977249293E+03  0.12509000000E+03 0.  0.
<mgrwt>
<rscale>  2 0.53479479E+03</rscale>
<asrwt>0</asrwt>
<pdfrwt beam="1">  1       21 0.26042852E-01 0.53479479E+03</pdfrwt>
<pdfrwt beam="2">  1       21 0.59375597E-01 0.53479479E+03</pdfrwt>
<totfact> 0.33304277E+04</totfact>
</mgrwt>
</event>
<event>
 6    0  0.1539497E-004  0.4099478E+03  0.7546771E-02  0.1040389E+00
         21   -1    0    0  502  501  0.00000000000E+00  0.00000000000E+00  0.31703162948E+03  0.31703162948E+03  0.00000000000E+00 0.  1.
         21   -1    0    0  501  502 -0.00000000000E+00 -0.00000000000E+00 -0.13252401706E+03  0.13252401706E+03  0.00000000000E+00 0.  1.
      99925    2    1    2    0    0 -0.78381032891E+01 -0.58953580386E+02  0.10196811979E+03  0.28831906122E+03  0.26304642766E+03 0.  0.
         25    1    3    3    0    0 -0.17015878498E+02  0.26933194867E+01  0.24836245529E+02  0.12869009784E+03  0.12509000000E+03 0.  0.
         25    1    3    3    0    0  0.91777752087E+01 -0.61646899872E+02  0.77131874262E+02  0.15962896338E+03  0.12509000000E+03 0.  0.
         25    1    1    2    0    0  0.78381032891E+01  0.58953580386E+02  0.82539492622E+02  0.16123658532E+03  0.12509000000E+03 0.  0.
<mgrwt>
<rscale>  2 0.40994783E+03</rscale>
<asrwt>0</asrwt>
<pdfrwt beam="1">  1       21 0.46622298E-01 0.40994783E+03</pdfrwt>
<pdfrwt beam="2">  1       21 0.19488826E-01 0.40994783E+03</pdfrwt>
<totfact> 0.10034463E+05</totfact>
</mgrwt>
</event>
<event>
 6    0  0.1539497E-004  0.4676963E+03  0.7546771E-02  0.1022572E+00
         21   -1    0    0  502  501  0.00000000000E+00  0.00000000000E+00  0.24930738809E+03  0.24930738809E+03  0.00000000000E+00 0. -1.
         21   -1    0    0  501  502 -0.00000000000E+00 -0.00000000000E+00 -0.21934747862E+03  0.21934747862E+03  0.00000000000E+00 0. -1.
      99925    2    1    2    0    0  0.11925435859E+03 -0.50851678810E+01  0.53802355737E+02  0.29411710198E+03  0.26336802240E+03 0.  0.
         25    1    3    3    0    0  0.76566854928E+02 -0.24605854544E+02  0.60014857516E+02  0.16036590216E+03  0.12509000000E+03 0.  0.
         25    1    3    3    0    0  0.42687503660E+02  0.19520686663E+02 -0.62125017786E+01  0.13375119983E+03  0.12509000000E+03 0.  0.
         25    1    1    2    0    0 -0.11925435859E+03  0.50851678810E+01 -0.23842446263E+02  0.17453776473E+03  0.12509000000E+03 0.  0.
<mgrwt>
<rscale>  2 0.46769626E+03</rscale>
<asrwt>0</asrwt>
<pdfrwt beam="1">  1       21 0.36662851E-01 0.46769626E+03</pdfrwt>
<pdfrwt beam="2">  1       21 0.32256982E-01 0.46769626E+03</pdfrwt>
<totfact> 0.61126045E+04</totfact>
</mgrwt>
</event>
<event>
 6    0  0.1539497E-004  0.4051300E+03  0.7546771E-02  0.1042018E+00
         21   -1    0    0  502  501  0.00000000000E+00  0.00000000000E+00  0.28164104669E+02  0.28164104669E+02  0.00000000000E+00 0. -1.
         21   -1    0    0  501  502 -0.00000000000E+00 -0.00000000000E+00 -0.14569106197E+04  0.14569106197E+04  0.00000000000E+00 0. -1.
      99925    2    1    2    0    0 -0.31196505561E+02  0.33038271191E+02 -0.10573619067E+04  0.10905639073E+04  0.26315524887E+03 0.  0.
         25    1    3    3    0    0 -0.29984590014E+02  0.12422242907E+02 -0.68844584561E+03  0.70047025504E+03  0.12509000000E+03 0.  0.
         25    1    1    2    0    0  0.31196505561E+02 -0.33038271191E+02 -0.37138460842E+03  0.39451081708E+03  0.12509000000E+03 0.  0.
         25    1    3    3    0    0 -0.12119155466E+01  0.20616028284E+02 -0.36891606104E+03  0.39009365229E+03  0.12509000000E+03 0.  0.
<mgrwt>
<rscale>  2 0.40513002E+03</rscale>
<asrwt>0</asrwt>
<pdfrwt beam="1">  1       21 0.41417797E-02 0.40513002E+03</pdfrwt>
<pdfrwt beam="2">  1       21 0.21425158E+00 0.40513002E+03</pdfrwt>
<totfact> 0.36306416E+04</totfact>
</mgrwt>
</event>
<event>
 6    0  0.1539497E-004  0.4737933E+03  0.7546771E-02  0.1020855E+00
         21   -1    0    0  502  501  0.00000000000E+00  0.00000000000E+00  0.56384510813E+02  0.56384510813E+02  0.00000000000E+00 0. -1.
         21   -1    0    0  501  502 -0.00000000000E+00 -0.00000000000E+00 -0.99530912738E+03  0.99530912738E+03  0.00000000000E+00 0. -1.
      99925    2    1    2    0    0  0.68992362624E+02 -0.93809707563E+02 -0.70894228620E+03  0.76516338200E+03  0.26327861413E+03 0.  0.
         25    1    3    3    0    0  0.35901132124E+02 -0.89861544040E+02 -0.37303966611E+03  0.40517908260E+03  0.12509000000E+03 0.  0.
         25    1    1    2    0    0 -0.68992362624E+02  0.93809707563E+02 -0.22998233037E+03  0.28653025620E+03  0.12509000000E+03 0.  0.
         25    1    3    3    0    0  0.33091230500E+02 -0.39481635230E+01 -0.33590262009E+03  0.35998429940E+03  0.12509000000E+03 0.  0.
<mgrwt>
<rscale>  2 0.47379328E+03</rscale>
<asrwt>0</asrwt>
<pdfrwt beam="1">  1       21 0.82918400E-02 0.47379328E+03</pdfrwt>
<pdfrwt beam="2">  1       21 0.14636899E+00 0.47379328E+03</pdfrwt>
<totfact> 0.32222670E+04</totfact>
</mgrwt>
</event>
<event>
 6    0  0.1539497E-004  0.3995905E+03  0.7546771E-02  0.1043922E+00
         21   -1    0    0  502  501  0.00000000000E+00  0.00000000000E+00  0.65030148580E+02  0.65030148580E+02  0.00000000000E+00 0.  1.
         21   -1    0    0  501  502 -0.00000000000E+00 -0.00000000000E+00 -0.61384060180E+03  0.61384060180E+03  0.00000000000E+00 0.  1.
      99925    2    1    2    0    0 -0.15833824055E+02 -0.32034555293E+01 -0.29532012022E+03  0.39573504239E+03  0.26292827589E+03 0.  0.
         25    1    3    3    0    0 -0.33099359158E+02 -0.31808482437E+02 -0.16419736467E+03  0.21146070509E+03  0.12509000000E+03 0.  0.
         25    1    1    2    0    0  0.15833824055E+02  0.32034555293E+01 -0.25349033301E+03  0.28313570799E+03  0.12509000000E+03 0.  0.
         25    1    3    3    0    0  0.17265535103E+02  0.28605026908E+02 -0.13112275554E+03  0.18427433730E+03  0.12509000000E+03 0.  0.
<mgrwt>
<rscale>  2 0.39959052E+03</rscale>
<asrwt>0</asrwt>
<pdfrwt beam="1">  1       21 0.95632570E-02 0.39959052E+03</pdfrwt>
<pdfrwt beam="2">  1       21 0.90270678E-01 0.39959052E+03</pdfrwt>
<totfact> 0.85818820E+04</totfact>
</mgrwt>
</event>
<event>
 6    0  0.1539497E-004  0.4303621E+03  0.7546771E-02  0.1033746E+00
         21   -1    0    0  502  501  0.00000000000E+00  0.00000000000E+00  0.92474216829E+02  0.92474216829E+02  0.00000000000E+00 0.  1.
         21   -1    0    0  501  502 -0.00000000000E+00 -0.00000000000E+00 -0.50071126569E+03  0.50071126569E+03  0.00000000000E+00 0.  1.
      99925    2    1    2    0    0  0.64986954745E+02  0.27178022630E+02 -0.33695818071E+03  0.43290406018E+03  0.26249411531E+03 0.  0.
         25    1    1    2    0    0 -0.64986954745E+02 -0.27178022630E+02 -0.71278868149E+02  0.16028142233E+03  0.12509000000E+03 0.  0.
         25    1    3    3    0    0  0.50103146170E+02  0.24853317416E+02 -0.12061775138E+03  0.18254906927E+03  0.12509000000E+03 0.  0.
         25    1    3    3    0    0  0.14883808575E+02  0.23247052140E+01 -0.21634042934E+03  0.25035499092E+03  0.12509000000E+03 0.  0.
<mgrwt>
<rscale>  2 0.43036209E+03</rscale>
<asrwt>0</asrwt>
<pdfrwt beam="1">  1       21 0.13599150E-01 0.43036209E+03</pdfrwt>
<pdfrwt beam="2">  1       21 0.73634009E-01 0.43036209E+03</pdfrwt>
<totfact> 0.72154245E+04</totfact>
</mgrwt>
</event>
<event>
 6    0  0.1539497E-004  0.4027243E+03  0.7546771E-02  0.1042840E+00
         21   -1    0    0  502  501  0.00000000000E+00  0.00000000000E+00  0.10994633115E+04  0.10994633115E+04  0.00000000000E+00 0. -1.
         21   -1    0    0  501  502 -0.00000000000E+00 -0.00000000000E+00 -0.36878637938E+02  0.36878637938E+02  0.00000000000E+00 0. -1.
      99925    2    1    2    0    0 -0.63986208891E+01  0.36808280755E+02  0.61021607807E+03  0.66551220721E+03  0.26295825548E+03 0.  0.
         25    1    1    2    0    0  0.63986208891E+01 -0.36808280755E+02  0.45236859550E+03  0.47082974224E+03  0.12509000000E+03 0.  0.
         25    1    3    3    0    0  0.10206324828E+02  0.43946480195E+01  0.38914513272E+03  0.40890698749E+03  0.12509000000E+03 0.  0.
         25    1    3    3    0    0 -0.16604945717E+02  0.32413632736E+02  0.22107094536E+03  0.25660521972E+03  0.12509000000E+03 0.  0.
<mgrwt>
<rscale>  2 0.40272427E+03</rscale>
<asrwt>0</asrwt>
<pdfrwt beam="1">  1       21 0.16168576E+00 0.40272427E+03</pdfrwt>
<pdfrwt beam="2">  1       21 0.54233298E-02 0.40272427E+03</pdfrwt>
<totfact> 0.52635149E+04</totfact>
</mgrwt>
</event>
<event>
 6    0  0.1539497E-004  0.4463728E+03  0.7546771E-02  0.1028809E+00
         21   -1    0    0  502  501  0.00000000000E+00  0.00000000000E+00  0.35230391962E+02  0.35230391962E+02  0.00000000000E+00 0.  1.
         21   -1    0    0  501  502 -0.00000000000E+00 -0.00000000000E+00 -0.14138979666E+04  0.14138979666E+04  0.00000000000E+00 0.  1.
      99925    2    1    2    0    0  0.70426583156E+02  0.14170618918E+02 -0.11225085506E+04  0.11551459378E+04  0.26301327200E+03 0.  0.
         25    1    1    2    0    0 -0.70426583156E+02 -0.14170618918E+02 -0.25615902401E+03  0.29398242080E+03  0.12509000000E+03 0.  0.
         25    1    3    3    0    0 -0.45186954837E+01  0.11798003763E+02 -0.57120383647E+03  0.58487686088E+03  0.12509000000E+03 0.  0.
         25    1    3    3    0    0  0.74945278639E+02  0.23726151555E+01 -0.55130471416E+03  0.57026907688E+03  0.12509000000E+03 0.  0.
<mgrwt>
<rscale>  2 0.44637285E+03</rscale>
<asrwt>0</asrwt>
<pdfrwt beam="1">  1       21 0.51809397E-02 0.44637285E+03</pdfrwt>
<pdfrwt beam="2">  1       21 0.20792618E+00 0.44637285E+03</pdfrwt>
<totfact> 0.26803858E+04</totfact>
</mgrwt>
</event>
<event>
 5    0  0.1539497E-004  0.5778960E+03  0.7546771E-02  0.9952357E-01
         21   -1    0    0  502  501  0.00000000000E+00  0.00000000000E+00  0.19065010590E+04  0.19065010590E+04  0.00000000000E+00 0.  1.
         21   -1    0    0  501  502 -0.00000000000E+00 -0.00000000000E+00 -0.43792759310E+02  0.43792759310E+02  0.00000000000E+00 0.  1.
         25    1    1    2    0    0 -0.30203682819E+02 -0.85472081028E+02  0.29852362087E+03  0.33612735593E+03  0.12509000000E+03 0.  0.
         25    1    1    2    0    0  0.10798394679E+03  0.15877967379E+03  0.10314686290E+04  0.10566203473E+04  0.12509000000E+03 0.  0.
         25    1    1    2    0    0 -0.77780263970E+02 -0.73307592762E+02  0.53271604978E+03  0.55754611505E+03  0.12509000000E+03 0.  0.
<mgrwt>
<rscale>  2 0.57789598E+03</rscale>
<asrwt>0</asrwt>
<pdfrwt beam="1">  1       21 0.28036775E+00 0.57789598E+03</pdfrwt>
<pdfrwt beam="2">  1       21 0.64401129E-02 0.57789598E+03</pdfrwt>
<totfact> 0.61919091E+03</totfact>
</mgrwt>
</event>
<event>
 6    0  0.1539497E-004  0.3963338E+03  0.7546771E-02  0.1045057E+00
         21   -1    0    0  502  501  0.00000000000E+00  0.00000000000E+00  0.17432349077E+03  0.17432349077E+03  0.00000000000E+00 0. -1.
         21   -1    0    0  501  502 -0.00000000000E+00 -0.00000000000E+00 -0.22527156724E+03  0.22527156724E+03  0.00000000000E+00 0. -1.
      99925    2    1    2    0    0  0.30130235013E+02  0.14289940974E+02 -0.54185680912E+02  0.27009593192E+03  0.26249512558E+03 0.  0.
         25    1    3    3    0    0  0.84038080967E+01  0.31208264875E+02 -0.58752830491E+02  0.14192950003E+03  0.12509000000E+03 0.  0.
         25    1    3    3    0    0  0.21726426916E+02 -0.16918323900E+02  0.45671495792E+01  0.12816643190E+03  0.12509000000E+03 0.  0.
         25    1    1    2    0    0 -0.30130235013E+02 -0.14289940974E+02  0.32376044466E+01  0.12949912609E+03  0.12509000000E+03 0.  0.
<mgrwt>
<rscale>  2 0.39633383E+03</rscale>
<asrwt>0</asrwt>
<pdfrwt beam="1">  1       21 0.25635807E-01 0.39633383E+03</pdfrwt>
<pdfrwt beam="2">  1       21 0.33128172E-01 0.39633383E+03</pdfrwt>
<totfact> 0.11980330E+05</totfact>
</mgrwt>
</event>
<event>
 6    0  0.1539497E-004  0.4168468E+03  0.7546771E-02  0.1038097E+00
         21   -1    0    0  502  501  0.00000000000E+00  0.00000000000E+00  0.87873161541E+03  0.87873161541E+03  0.00000000000E+00 0. -1.
         21   -1    0    0  501  502 -0.00000000000E+00 -0.00000000000E+00 -0.49435244475E+02  0.49435244475E+02  0.00000000000E+00 0. -1.
      99925    2    1    2    0    0  0.62646507409E+02  0.20906767379E+02  0.60519971708E+03  0.66316026340E+03  0.26296988342E+03 0.  0.
         25    1    1    2    0    0 -0.62646507409E+02 -0.20906767379E+02  0.22409665386E+03  0.26500659649E+03  0.12509000000E+03 0.  0.
         25    1    3    3    0    0  0.55245867041E+02  0.35607886672E+02  0.26504281338E+03  0.30035849986E+03  0.12509000000E+03 0.  0.
         25    1    3    3    0    0  0.74006403687E+01 -0.14701119293E+02  0.34015690370E+03  0.36280176353E+03  0.12509000000E+03 0.  0.
<mgrwt>
<rscale>  2 0.41684679E+03</rscale>
<asrwt>0</asrwt>
<pdfrwt beam="1">  1       21 0.12922523E+00 0.41684679E+03</pdfrwt>
<pdfrwt beam="2">  1       21 0.72698894E-02 0.41684679E+03</pdfrwt>
<totfact> 0.57327359E+04</totfact>
</mgrwt>
</event>
<event>
 6    0  0.1539497E-004  0.3990186E+03  0.7546771E-02  0.1044120E+00
         21   -1    0    0  502  501  0.00000000000E+00  0.00000000000E+00  0.38895865862E+03  0.38895865862E+03  0.00000000000E+00 0. -1.
         21   -1    0    0  501  502 -0.00000000000E+00 -0.00000000000E+00 -0.10233466843E+03  0.10233466843E+03  0.00000000000E+00 0. -1.
      99925    2    1    2    0    0  0.25541707019E+02  0.19249025777E+02  0.15519405488E+03  0.30705370105E+03  0.26300927145E+03 0.  0.
         25    1    3    3    0    0  0.31886048535E+02 -0.13722587579E+02  0.10911316305E+03  0.16958248716E+03  0.12509000000E+03 0.  0.
         25    1    3    3    0    0 -0.63443415163E+01  0.32971613357E+02  0.46080891830E+02  0.13747121389E+03  0.12509000000E+03 0.  0.
         25    1    1    2    0    0 -0.25541707019E+02 -0.19249025777E+02  0.13142993531E+03  0.18423962599E+03  0.12509000000E+03 0.  0.
<mgrwt>
<rscale>  2 0.39901857E+03</rscale>
<asrwt>0</asrwt>
<pdfrwt beam="1">  1       21 0.57199802E-01 0.39901857E+03</pdfrwt>
<pdfrwt beam="2">  1       21 0.15049216E-01 0.39901857E+03</pdfrwt>
<totfact> 0.10549566E+05</totfact>
</mgrwt>
</event>
<event>
 6    0  0.1539497E-004  0.4010472E+03  0.7546771E-02  0.1043418E+00
         21   -1    0    0  502  501  0.00000000000E+00  0.00000000000E+00  0.13541670008E+03  0.13541670008E+03  0.00000000000E+00 0.  1.
         21   -1    0    0  501  502 -0.00000000000E+00 -0.00000000000E+00 -0.29693317247E+03  0.29693317247E+03  0.00000000000E+00 0.  1.
      99925    2    1    2    0    0  0.37050996049E+02  0.13039879138E+02 -0.13713125415E+03  0.29898960213E+03  0.26276793290E+03 0.  0.
         25    1    3    3    0    0  0.30041969028E+02 -0.17176729038E+02 -0.34655834518E+02  0.13433575432E+03  0.12509000000E+03 0.  0.
         25    1    1    2    0    0 -0.37050996049E+02 -0.13039879138E+02 -0.24385218242E+02  0.13336027041E+03  0.12509000000E+03 0.  0.
         25    1    3    3    0    0  0.70090270209E+01  0.30216608176E+02 -0.10247541963E+03  0.16465384781E+03  0.12509000000E+03 0.  0.
<mgrwt>
<rscale>  2 0.40104718E+03</rscale>
<asrwt>0</asrwt>
<pdfrwt beam="1">  1       21 0.19914221E-01 0.40104718E+03</pdfrwt>
<pdfrwt beam="2">  1       21 0.43666642E-01 0.40104718E+03</pdfrwt>
<totfact> 0.11065229E+05</totfact>
</mgrwt>
</event>
<event>
 6    0  0.1539497E-004  0.4353027E+03  0.7546771E-02  0.1032198E+00
         21   -1    0    0  502  501  0.00000000000E+00  0.00000000000E+00  0.17483345432E+04  0.17483345432E+04  0.00000000000E+00 0. -1.
         21   -1    0    0  501  502 -0.00000000000E+00 -0.00000000000E+00 -0.27095568515E+02  0.27095568515E+02  0.00000000000E+00 0. -1.
      99925    2    1    2    0    0  0.48202288976E+02  0.63773722393E+01  0.77782100574E+03  0.82251400640E+03  0.26298220893E+03 0.  0.
         25    1    1    2    0    0 -0.48202288976E+02 -0.63773722393E+01  0.94341796892E+03  0.95291610529E+03  0.12509000000E+03 0.  0.
         25    1    3    3    0    0  0.13347100118E+02  0.42087787059E+02  0.39773640971E+03  0.41927471496E+03  0.12509000000E+03 0.  0.
         25    1    3    3    0    0  0.34855188858E+02 -0.35710414820E+02  0.38008459603E+03  0.40323929143E+03  0.12509000000E+03 0.  0.
<mgrwt>
<rscale>  2 0.43530274E+03</rscale>
<asrwt>0</asrwt>
<pdfrwt beam="1">  1       21 0.25710795E+00 0.43530274E+03</pdfrwt>
<pdfrwt beam="2">  1       21 0.39846436E-02 0.43530274E+03</pdfrwt>
<totfact> 0.20728921E+04</totfact>
</mgrwt>
</event>
<event>
 6    0  0.1539497E-004  0.4166710E+03  0.7546771E-02  0.1038155E+00
         21   -1    0    0  502  501  0.00000000000E+00  0.00000000000E+00  0.16029913216E+03  0.16029913216E+03  0.00000000000E+00 0. -1.
         21   -1    0    0  501  502 -0.00000000000E+00 -0.00000000000E+00 -0.27076675714E+03  0.27076675714E+03  0.00000000000E+00 0. -1.
      99925    2    1    2    0    0 -0.41403995220E+01 -0.70031763627E+02 -0.89259164656E+02  0.28608693319E+03  0.26259654233E+03 0.  0.
         25    1    3    3    0    0  0.30929465658E+02 -0.15633896333E+02 -0.56025470333E+02  0.14137684388E+03  0.12509000000E+03 0.  0.
         25    1    1    2    0    0  0.41403995220E+01  0.70031763627E+02 -0.21208460316E+02  0.14497895611E+03  0.12509000000E+03 0.  0.
         25    1    3    3    0    0 -0.35069865180E+02 -0.54397867294E+02 -0.33233694323E+02  0.14471008931E+03  0.12509000000E+03 0.  0.
<mgrwt>
<rscale>  2 0.41667098E+03</rscale>
<asrwt>0</asrwt>
<pdfrwt beam="1">  1       21 0.23573402E-01 0.41667098E+03</pdfrwt>
<pdfrwt beam="2">  1       21 0.39818640E-01 0.41667098E+03</pdfrwt>
<totfact> 0.96652318E+04</totfact>
</mgrwt>
</event>
<event>
 6    0  0.1539497E-004  0.4134763E+03  0.7546771E-02  0.1039211E+00
         21   -1    0    0  502  501  0.00000000000E+00  0.00000000000E+00  0.13502656282E+03  0.13502656282E+03  0.00000000000E+00 0. -1.
         21   -1    0    0  501  502 -0.00000000000E+00 -0.00000000000E+00 -0.31653522268E+03  0.31653522268E+03  0.00000000000E+00 0. -1.
      99925    2    1    2    0    0  0.79841889868E+01  0.55595498505E+02 -0.15956871287E+03  0.31269682916E+03  0.26298769193E+03 0.  0.
         25    1    3    3    0    0  0.13397621691E+02  0.12710666066E+02 -0.35611864199E+02  0.13136502682E+03  0.12509000000E+03 0.  0.
         25    1    1    2    0    0 -0.79841889868E+01 -0.55595498505E+02 -0.21939946992E+02  0.13886495635E+03  0.12509000000E+03 0.  0.
         25    1    3    3    0    0 -0.54134327041E+01  0.42884832438E+02 -0.12395684867E+03  0.18133180234E+03  0.12509000000E+03 0.  0.
<mgrwt>
<rscale>  2 0.41347630E+03</rscale>
<asrwt>0</asrwt>
<pdfrwt beam="1">  1       21 0.19856848E-01 0.41347630E+03</pdfrwt>
<pdfrwt beam="2">  1       21 0.46549297E-01 0.41347630E+03</pdfrwt>
<totfact> 0.97095946E+04</totfact>
</mgrwt>
</event>
<event>
 6    0  0.1539497E-004  0.4633078E+03  0.7546771E-02  0.1023826E+00
         21   -1    0    0  502  501  0.00000000000E+00  0.00000000000E+00  0.38976453715E+03  0.38976453715E+03  0.00000000000E+00 0.  1.
         21   -1    0    0  501  502 -0.00000000000E+00 -0.00000000000E+00 -0.13768190010E+03  0.13768190010E+03  0.00000000000E+00 0.  1.
      99925    2    1    2    0    0 -0.10700518425E+03  0.48926418368E+02  0.18870406896E+03  0.34439383589E+03  0.26297145223E+03 0.  0.
         25    1    1    2    0    0  0.10700518425E+03 -0.48926418368E+02  0.63378568095E+02  0.18305260136E+03  0.12509000000E+03 0.  0.
         25    1    3    3    0    0 -0.57634625572E+02 -0.42581319727E+01  0.58136353748E+02  0.14955676340E+03  0.12509000000E+03 0.  0.
         25    1    3    3    0    0 -0.49370558678E+02  0.53184550340E+02  0.13056771521E+03  0.19483707248E+03  0.12509000000E+03 0.  0.
<mgrwt>
<rscale>  2 0.46330777E+03</rscale>
<asrwt>0</asrwt>
<pdfrwt beam="1">  1       21 0.57318314E-01 0.46330777E+03</pdfrwt>
<pdfrwt beam="2">  1       21 0.20247338E-01 0.46330777E+03</pdfrwt>
<totfact> 0.59371876E+04</totfact>
</mgrwt>
</event>
<event>
 6    0  0.1539497E-004  0.4459634E+03  0.7546771E-02  0.1028933E+00
         21   -1    0    0  502  501  0.00000000000E+00  0.00000000000E+00  0.34963544023E+03  0.34963544023E+03  0.00000000000E+00 0. -1.
         21   -1    0    0  501  502 -0.00000000000E+00 -0.00000000000E+00 -0.14220763680E+03  0.14220763680E+03  0.00000000000E+00 0. -1.
      99925    2    1    2    0    0  0.79284483245E+02  0.66386934698E+02  0.11862525441E+03  0.30683860359E+03  0.26340980105E+03 0.  0.
         25    1    1    2    0    0 -0.79284483245E+02 -0.66386934698E+02  0.88802549018E+02  0.18500447344E+03  0.12509000000E+03 0.  0.
         25    1    3    3    0    0  0.42738474926E+01  0.52421217935E+02  0.68275568673E+02  0.15190559976E+03  0.12509000000E+03 0.  0.
         25    1    3    3    0    0  0.75010635752E+02  0.13965716763E+02  0.50349685738E+02  0.15493300383E+03  0.12509000000E+03 0.  0.
<mgrwt>
<rscale>  2 0.44596336E+03</rscale>
<asrwt>0</asrwt>
<pdfrwt beam="1">  1       21 0.51416976E-01 0.44596336E+03</pdfrwt>
<pdfrwt beam="2">  1       21 0.20912888E-01 0.44596336E+03</pdfrwt>
<totfact> 0.70791197E+04</totfact>
</mgrwt>
</event>
<event>
 6    0  0.1539497E-004  0.4894851E+03  0.7546771E-02  0.1016560E+00
         21   -1    0    0  502  501  0.00000000000E+00  0.00000000000E+00  0.32521988022E+03  0.32521988022E+03  0.00000000000E+00 0. -1.
         21   -1    0    0  501  502 -0.00000000000E+00 -0.00000000000E+00 -0.18417974391E+03  0.18417974391E+03  0.00000000000E+00 0. -1.
      99925    2    1    2    0    0 -0.87129351759E+02  0.72392048299E+02  0.17725757097E+03  0.33679793448E+03  0.26302180444E+03 0.  0.
         25    1    1    2    0    0  0.87129351759E+02 -0.72392048299E+02 -0.36217434660E+02  0.17260168964E+03  0.12509000000E+03 0.  0.
         25    1    3    3    0    0 -0.71583822588E+02  0.65311928688E+02  0.11768235660E+03  0.19719669582E+03  0.12509000000E+03 0.  0.
         25    1    3    3    0    0 -0.15545529171E+02  0.70801196106E+01  0.59575214366E+02  0.13960123867E+03  0.12509000000E+03 0.  0.
<mgrwt>
<rscale>  2 0.48948509E+03</rscale>
<asrwt>0</asrwt>
<pdfrwt beam="1">  1       21 0.47826453E-01 0.48948509E+03</pdfrwt>
<pdfrwt beam="2">  1       21 0.27085256E-01 0.48948509E+03</pdfrwt>
<totfact> 0.49586530E+04</totfact>
</mgrwt>
</event>
<event>
 6    0  0.1539497E-004  0.4271170E+03  0.7546771E-02  0.1034775E+00
         21   -1    0    0  502  501  0.00000000000E+00  0.00000000000E+00  0.69646138442E+02  0.69646138442E+02  0.00000000000E+00 0.  1.
         21   -1    0    0  501  502 -0.00000000000E+00 -0.00000000000E+00 -0.65484213692E+03  0.65484213692E+03  0.00000000000E+00 0.  1.
      99925    2    1    2    0    0 -0.67708321737E+02  0.27107442278E+02 -0.45033807530E+03  0.52661609995E+03  0.26306064776E+03 0.  0.
         25    1    3    3    0    0 -0.13339922125E+02  0.45196100987E+02 -0.19242176799E+03  0.23429529650E+03  0.12509000000E+03 0.  0.
         25    1    1    2    0    0  0.67708321737E+02 -0.27107442278E+02 -0.13485792318E+03  0.19787217541E+03  0.12509000000E+03 0.  0.
         25    1    3    3    0    0 -0.54368399612E+02 -0.18088658709E+02 -0.25791630731E+03  0.29232080344E+03  0.12509000000E+03 0.  0.
<mgrwt>
<rscale>  2 0.42711697E+03</rscale>
<asrwt>0</asrwt>
<pdfrwt beam="1">  1       21 0.10242080E-01 0.42711697E+03</pdfrwt>
<pdfrwt beam="2">  1       21 0.96300310E-01 0.42711697E+03</pdfrwt>
<totfact> 0.64645575E+04</totfact>
</mgrwt>
</event>
<event>
 6    0  0.1539497E-004  0.4170992E+03  0.7546771E-02  0.1038015E+00
         21   -1    0    0  502  501  0.00000000000E+00  0.00000000000E+00  0.31172180900E+02  0.31172180900E+02  0.00000000000E+00 0. -1.
         21   -1    0    0  501  502 -0.00000000000E+00 -0.00000000000E+00 -0.13952482675E+04  0.13952482675E+04  0.00000000000E+00 0. -1.
      99925    2    1    2    0    0  0.57682295277E+02  0.15000472422E+02 -0.75342729453E+03  0.80024817440E+03  0.26304408592E+03 0.  0.
         25    1    3    3    0    0 -0.97935834145E+01  0.19934877529E+02 -0.33246713944E+03  0.35591462534E+03  0.12509000000E+03 0.  0.
         25    1    3    3    0    0  0.67475878692E+02 -0.49344051074E+01 -0.42096015508E+03  0.44433354906E+03  0.12509000000E+03 0.  0.
         25    1    1    2    0    0 -0.57682295277E+02 -0.15000472422E+02 -0.61064879204E+03  0.62617227396E+03  0.12509000000E+03 0.  0.
<mgrwt>
<rscale>  2 0.41709918E+03</rscale>
<asrwt>0</asrwt>
<pdfrwt beam="1">  1       21 0.45841439E-02 0.41709918E+03</pdfrwt>
<pdfrwt beam="2">  1       21 0.20518359E+00 0.41709918E+03</pdfrwt>
<totfact> 0.34816309E+04</totfact>
</mgrwt>
</event>
<event>
 6    0  0.1539497E-004  0.3997935E+03  0.7546771E-02  0.1043851E+00
         21   -1    0    0  502  501  0.00000000000E+00  0.00000000000E+00  0.46530037301E+02  0.46530037301E+02  0.00000000000E+00 0. -1.
         21   -1    0    0  501  502 -0.00000000000E+00 -0.00000000000E+00 -0.85877233383E+03  0.85877233383E+03  0.00000000000E+00 0. -1.
      99925    2    1    2    0    0 -0.11906279956E+01 -0.77098148369E+01 -0.64233577112E+03  0.69417067214E+03  0.26309089754E+03 0.  0.
         25    1    3    3    0    0 -0.28862827411E+02 -0.33112931579E+02 -0.31933298588E+03  0.34576088994E+03  0.12509000000E+03 0.  0.
         25    1    1    2    0    0  0.11906279956E+01  0.77098148369E+01 -0.16990652541E+03  0.21113169898E+03  0.12509000000E+03 0.  0.
         25    1    3    3    0    0  0.27672199415E+02  0.25403116742E+02 -0.32300278524E+03  0.34840978220E+03  0.12509000000E+03 0.  0.
<mgrwt>
<rscale>  2 0.39979349E+03</rscale>
<asrwt>0</asrwt>
<pdfrwt beam="1">  1       21 0.68426531E-02 0.39979349E+03</pdfrwt>
<pdfrwt beam="2">  1       21 0.12629004E+00 0.39979349E+03</pdfrwt>
<totfact> 0.67942119E+04</totfact>
</mgrwt>
</event>
<event>
 6    0  0.1539497E-004  0.4038736E+03  0.7546771E-02  0.1042447E+00
         21   -1    0    0  502  501  0.00000000000E+00  0.00000000000E+00  0.50552582859E+03  0.50552582859E+03  0.00000000000E+00 0.  1.
         21   -1    0    0  501  502 -0.00000000000E+00 -0.00000000000E+00 -0.80665463444E+02  0.80665463444E+02  0.00000000000E+00 0.  1.
      99925    2    1    2    0    0 -0.65501180513E+01 -0.23797885602E+02  0.21568419865E+03  0.34121900761E+03  0.26325176961E+03 0.  0.
         25    1    3    3    0    0 -0.10402538825E+02  0.96264068934E+01  0.15048802147E+03  0.19620151179E+03  0.12509000000E+03 0.  0.
         25    1    1    2    0    0  0.65501180513E+01  0.23797885602E+02  0.20917616649E+03  0.24497228442E+03  0.12509000000E+03 0.  0.
         25    1    3    3    0    0  0.38524207742E+01 -0.33424292495E+02  0.65196177183E+02  0.14501749582E+03  0.12509000000E+03 0.  0.
<mgrwt>
<rscale>  2 0.40387362E+03</rscale>
<asrwt>0</asrwt>
<pdfrwt beam="1">  1       21 0.74342032E-01 0.40387362E+03</pdfrwt>
<pdfrwt beam="2">  1       21 0.11862568E-01 0.40387362E+03</pdfrwt>
<totfact> 0.91143190E+04</totfact>
</mgrwt>
</event>
<event>
 6    0  0.1539497E-004  0.4830854E+03  0.7546771E-02  0.1018291E+00
         21   -1    0    0  502  501  0.00000000000E+00  0.00000000000E+00  0.14937319673E+04  0.14937319673E+04  0.00000000000E+00 0.  1.
         21   -1    0    0  501  502 -0.00000000000E+00 -0.00000000000E+00 -0.39058463068E+02  0.39058463068E+02  0.00000000000E+00 0.  1.
      99925    2    1    2    0    0  0.87141795816E+02 -0.28866621573E+02  0.12204283439E+04  0.12518184075E+04  0.26301522431E+03 0.  0.
         25    1    3    3    0    0  0.37092451060E+02  0.19103779752E+02  0.68762262553E+03  0.70015226027E+03  0.12509000000E+03 0.  0.
         25    1    3    3    0    0  0.50049344756E+02 -0.47970401325E+02  0.53280571838E+03  0.55166614718E+03  0.12509000000E+03 0.  0.
         25    1    1    2    0    0 -0.87141795816E+02  0.28866621573E+02  0.23424516030E+03  0.28097202288E+03  0.12509000000E+03 0.  0.
<mgrwt>
<rscale>  2 0.48308540E+03</rscale>
<asrwt>0</asrwt>
<pdfrwt beam="1">  1       21 0.21966643E+00 0.48308540E+03</pdfrwt>
<pdfrwt beam="2">  1       21 0.57438926E-02 0.48308540E+03</pdfrwt>
<totfact> 0.18589284E+04</totfact>
</mgrwt>
</event>
<event>
 6    0  0.1539497E-004  0.4594574E+03  0.7546771E-02  0.1024939E+00
         21   -1    0    0  502  501  0.00000000000E+00  0.00000000000E+00  0.40331630068E+02  0.40331630068E+02  0.00000000000E+00 0. -1.
         21   -1    0    0  501  502 -0.00000000000E+00 -0.00000000000E+00 -0.13085331187E+04  0.13085331187E+04  0.00000000000E+00 0. -1.
      99925    2    1    2    0    0  0.46716677949E+02  0.47164262855E+02 -0.51128339628E+03  0.57881317756E+03  0.26307236175E+03 0.  0.
         25    1    3    3    0    0 -0.46375209586E+01  0.50248147947E+02 -0.28223128558E+03  0.31280727235E+03  0.12509000000E+03 0.  0.
         25    1    3    3    0    0  0.51354198907E+02 -0.30838850919E+01 -0.22905211070E+03  0.26600590521E+03  0.12509000000E+03 0.  0.
         25    1    1    2    0    0 -0.46716677949E+02 -0.47164262855E+02 -0.75691809239E+03  0.77005157125E+03  0.12509000000E+03 0.  0.
<mgrwt>
<rscale>  2 0.45945739E+03</rscale>
<asrwt>0</asrwt>
<pdfrwt beam="1">  1       21 0.59311225E-02 0.45945739E+03</pdfrwt>
<pdfrwt beam="2">  1       21 0.19243133E+00 0.45945739E+03</pdfrwt>
<totfact> 0.26786851E+04</totfact>
</mgrwt>
</event>
<event>
 6    0  0.1539497E-004  0.4224942E+03  0.7546771E-02  0.1036258E+00
         21   -1    0    0  502  501  0.00000000000E+00  0.00000000000E+00  0.22633075438E+03  0.22633075438E+03  0.00000000000E+00 0. -1.
         21   -1    0    0  501  502 -0.00000000000E+00 -0.00000000000E+00 -0.19716868925E+03  0.19716868925E+03  0.00000000000E+00 0. -1.
      99925    2    1    2    0    0 -0.61218342186E+02  0.37964266202E+02  0.51582604465E+02  0.27742015142E+03  0.26289200140E+03 0.  0.
         25    1    3    3    0    0 -0.47707575050E+02  0.52064000547E+01 -0.83902255734E+01  0.13424240501E+03  0.12509000000E+03 0.  0.
         25    1    1    2    0    0  0.61218342186E+02 -0.37964266202E+02 -0.22420539343E+02  0.14607929221E+03  0.12509000000E+03 0.  0.
         25    1    3    3    0    0 -0.13510767136E+02  0.32757866147E+02  0.59972830038E+02  0.14317774641E+03  0.12509000000E+03 0.  0.
<mgrwt>
<rscale>  2 0.42249420E+03</rscale>
<asrwt>0</asrwt>
<pdfrwt beam="1">  1       21 0.33283935E-01 0.42249420E+03</pdfrwt>
<pdfrwt beam="2">  1       21 0.28995395E-01 0.42249420E+03</pdfrwt>
<totfact> 0.92734860E+04</totfact>
</mgrwt>
</event>
<event>
 6    0  0.1539497E-004  0.4263681E+03  0.7546771E-02  0.1035013E+00
         21   -1    0    0  502  501  0.00000000000E+00  0.00000000000E+00  0.45541030798E+03  0.45541030798E+03  0.00000000000E+00 0. -1.
         21   -1    0    0  501  502 -0.00000000000E+00 -0.00000000000E+00 -0.99794492313E+02  0.99794492313E+02  0.00000000000E+00 0. -1.
      99925    2    1    2    0    0  0.29721078065E+02  0.24111030724E+02  0.32670427966E+03  0.42123439573E+03  0.26313123249E+03 0.  0.
         25    1    3    3    0    0  0.39390062006E+02  0.43140333740E+02  0.15247535825E+03  0.20569129382E+03  0.12509000000E+03 0.  0.
         25    1    1    2    0    0 -0.29721078065E+02 -0.24111030724E+02  0.28911536000E+02  0.13397040456E+03  0.12509000000E+03 0.  0.
         25    1    3    3    0    0 -0.96689839408E+01 -0.19029303016E+02  0.17422892141E+03  0.21554310191E+03  0.12509000000E+03 0.  0.
<mgrwt>
<rscale>  2 0.42636811E+03</rscale>
<asrwt>0</asrwt>
<pdfrwt beam="1">  1       21 0.66972103E-01 0.42636811E+03</pdfrwt>
<pdfrwt beam="2">  1       21 0.14675661E-01 0.42636811E+03</pdfrwt>
<totfact> 0.77678626E+04</totfact>
</mgrwt>
</event>
<event>
 6    0  0.1539497E-004  0.4041537E+03  0.7546771E-02  0.1042351E+00
         21   -1    0    0  502  501  0.00000000000E+00  0.00000000000E+00  0.18918515358E+04  0.18918515358E+04  0.00000000000E+00 0. -1.
         21   -1    0    0  501  502 -0.00000000000E+00 -0.00000000000E+00 -0.21584706987E+02  0.21584706987E+02  0.00000000000E+00 0. -1.
      99925    2    1    2    0    0  0.41237246739E+02  0.32616047070E+02  0.12030898203E+04  0.12326007371E+04  0.26289759278E+03 0.  0.
         25    1    1    2    0    0 -0.41237246739E+02 -0.32616047070E+02  0.66717700854E+03  0.68083550574E+03  0.12509000000E+03 0.  0.
         25    1    3    3    0    0 -0.16136525060E+02  0.22542955186E+02  0.50467862248E+03  0.52068857521E+03  0.12509000000E+03 0.  0.
         25    1    3    3    0    0  0.57373771799E+02  0.10073091884E+02  0.69841119783E+03  0.71191216188E+03  0.12509000000E+03 0.  0.
<mgrwt>
<rscale>  2 0.40415374E+03</rscale>
<asrwt>0</asrwt>
<pdfrwt beam="1">  1       21 0.27821335E+00 0.40415374E+03</pdfrwt>
<pdfrwt beam="2">  1       21 0.31742229E-02 0.40415374E+03</pdfrwt>
<totfact> 0.23003696E+04</totfact>
</mgrwt>
</event>
<event>
 6    0  0.1539497E-004  0.3988086E+03  0.7546771E-02  0.1044193E+00
         21   -1    0    0  502  501  0.00000000000E+00  0.00000000000E+00  0.75900052320E+02  0.75900052320E+02  0.00000000000E+00 0.  1.
         21   -1    0    0  501  502 -0.00000000000E+00 -0.00000000000E+00 -0.52387408537E+03  0.52387408537E+03  0.00000000000E+00 0.  1.
      99925    2    1    2    0    0 -0.23055431226E+02  0.35678374657E+02 -0.28662580861E+03  0.39124294828E+03  0.26289197609E+03 0.  0.
         25    1    1    2    0    0  0.23055431226E+02 -0.35678374657E+02 -0.16134822444E+03  0.20853118941E+03  0.12509000000E+03 0.  0.
         25    1    3    3    0    0  0.87496958757E+01 -0.14446117936E+02 -0.15826010127E+03  0.20243274255E+03  0.12509000000E+03 0.  0.
         25    1    3    3    0    0 -0.31805127102E+02  0.50124492593E+02 -0.12836570734E+03  0.18881020573E+03  0.12509000000E+03 0.  0.
<mgrwt>
<rscale>  2 0.39880858E+03</rscale>
<asrwt>0</asrwt>
<pdfrwt beam="1">  1       21 0.11161772E-01 0.39880858E+03</pdfrwt>
<pdfrwt beam="2">  1       21 0.77040310E-01 0.39880858E+03</pdfrwt>
<totfact> 0.93940044E+04</totfact>
</mgrwt>
</event>
<event>
 5    0  0.1539497E-004  0.5189272E+03  0.7546771E-02  0.1008953E+00
         21   -1    0    0  502  501  0.00000000000E+00  0.00000000000E+00  0.87105743363E+03  0.87105743363E+03  0.00000000000E+00 0. -1.
         21   -1    0    0  501  502 -0.00000000000E+00 -0.00000000000E+00 -0.77286941311E+02  0.77286941311E+02  0.00000000000E+00 0. -1.
         25    1    1    2    0    0  0.12217283942E+03 -0.29885734576E+02  0.31889140296E+03  0.36490902264E+03  0.12509000000E+03 0.  0.
         25    1    1    2    0    0 -0.16094724282E+03  0.23396716787E+02  0.32441877369E+03  0.38385735651E+03  0.12509000000E+03 0.  0.
         25    1    1    2    0    0  0.38774403401E+02  0.64890177892E+01  0.15046031567E+03  0.19957799579E+03  0.12509000000E+03 0.  0.
<mgrwt>
<rscale>  2 0.51892722E+03</rscale>
<asrwt>0</asrwt>
<pdfrwt beam="1">  1       21 0.12809668E+00 0.51892722E+03</pdfrwt>
<pdfrwt beam="2">  1       21 0.11365727E-01 0.51892722E+03</pdfrwt>
<totfact> 0.25722269E+04</totfact>
</mgrwt>
</event>
<event>
 6    0  0.1539497E-004  0.4923306E+03  0.7546771E-02  0.1015800E+00
         21   -1    0    0  502  501  0.00000000000E+00  0.00000000000E+00  0.43734370776E+03  0.43734370776E+03  0.00000000000E+00 0.  1.
         21   -1    0    0  501  502 -0.00000000000E+00 -0.00000000000E+00 -0.13855772372E+03  0.13855772372E+03  0.00000000000E+00 0.  1.
      99925    2    1    2    0    0  0.77607716343E+02 -0.12270953066E+03  0.17802970818E+03  0.34938394250E+03  0.26323748922E+03 0.  0.
         25    1    1    2    0    0 -0.77607716343E+02  0.12270953066E+03  0.12075627586E+03  0.22651748898E+03  0.12509000000E+03 0.  0.
         25    1    3    3    0    0  0.30415051768E+01 -0.55558058352E+02  0.10808074376E+03  0.17442735988E+03  0.12509000000E+03 0.  0.
         25    1    3    3    0    0  0.74566211166E+02 -0.67151472310E+02  0.69948964422E+02  0.17495658263E+03  0.12509000000E+03 0.  0.
<mgrwt>
<rscale>  2 0.49233057E+03</rscale>
<asrwt>0</asrwt>
<pdfrwt beam="1">  1       21 0.64315251E-01 0.49233057E+03</pdfrwt>
<pdfrwt beam="2">  1       21 0.20376136E-01 0.49233057E+03</pdfrwt>
<totfact> 0.45262067E+04</totfact>
</mgrwt>
</event>
<event>
 6    0  0.1539497E-004  0.3929391E+03  0.7546771E-02  0.1046252E+00
         21   -1    0    0  502  501  0.00000000000E+00  0.00000000000E+00  0.77873462143E+02  0.77873462143E+02  0.00000000000E+00 0. -1.
         21   -1    0    0  501  502 -0.00000000000E+00 -0.00000000000E+00 -0.49567962302E+03  0.49567962302E+03  0.00000000000E+00 0. -1.
      99925    2    1    2    0    0 -0.22241709126E+02  0.13087858416E+01 -0.25475221727E+03  0.36683950755E+03  0.26301354632E+03 0.  0.
         25    1    1    2    0    0  0.22241709126E+02 -0.13087858416E+01 -0.16305394361E+03  0.20671357762E+03  0.12509000000E+03 0.  0.
         25    1    3    3    0    0 -0.38812066542E+02  0.50354529658E+01 -0.17054898702E+03  0.21509578650E+03  0.12509000000E+03 0.  0.
         25    1    3    3    0    0  0.16570357417E+02 -0.37266671242E+01 -0.84203230248E+02  0.15174372105E+03  0.12509000000E+03 0.  0.
<mgrwt>
<rscale>  2 0.39293912E+03</rscale>
<asrwt>0</asrwt>
<pdfrwt beam="1">  1       21 0.11451980E-01 0.39293912E+03</pdfrwt>
<pdfrwt beam="2">  1       21 0.72894061E-01 0.39293912E+03</pdfrwt>
<totfact> 0.10182728E+05</totfact>
</mgrwt>
</event>
<event>
 6    0  0.1539497E-004  0.4055791E+03  0.7546771E-02  0.1041865E+00
         21   -1    0    0  502  501  0.00000000000E+00  0.00000000000E+00  0.46720520876E+03  0.46720520876E+03  0.00000000000E+00 0. -1.
         21   -1    0    0  501  502 -0.00000000000E+00 -0.00000000000E+00 -0.88020436594E+02  0.88020436594E+02  0.00000000000E+00 0. -1.
      99925    2    1    2    0    0  0.55038847936E+02 -0.54447398588E+01  0.24622591304E+03  0.36447846636E+03  0.26297990838E+03 0.  0.
         25    1    1    2    0    0 -0.55038847936E+02  0.54447398588E+01  0.13295885912E+03  0.19074717899E+03  0.12509000000E+03 0.  0.
         25    1    3    3    0    0  0.30262233882E+02 -0.42703471626E+02  0.11601242971E+03  0.17845386305E+03  0.12509000000E+03 0.  0.
         25    1    3    3    0    0  0.24776614055E+02  0.37258731768E+02  0.13021348333E+03  0.18602460331E+03  0.12509000000E+03 0.  0.
<mgrwt>
<rscale>  2 0.40557912E+03</rscale>
<asrwt>0</asrwt>
<pdfrwt beam="1">  1       21 0.68706647E-01 0.40557912E+03</pdfrwt>
<pdfrwt beam="2">  1       21 0.12944182E-01 0.40557912E+03</pdfrwt>
<totfact> 0.92831814E+04</totfact>
</mgrwt>
</event>
<event>
 6    0  0.1539497E-004  0.4417211E+03  0.7546771E-02  0.1030220E+00
         21   -1    0    0  502  501  0.00000000000E+00  0.00000000000E+00  0.14847520004E+03  0.14847520004E+03  0.00000000000E+00 0. -1.
         21   -1    0    0  501  502 -0.00000000000E+00 -0.00000000000E+00 -0.32853562189E+03  0.32853562189E+03  0.00000000000E+00 0. -1.
      99925    2    1    2    0    0  0.15659518873E+02 -0.33451460474E+02 -0.13994168775E+02  0.26584801922E+03  0.26289753103E+03 0.  0.
         25    1    3    3    0    0  0.24797890274E+02 -0.23731890274E+02  0.28978828030E+02  0.13291131837E+03  0.12509000000E+03 0.  0.
         25    1    1    2    0    0 -0.15659518873E+02  0.33451460474E+02 -0.16606625307E+03  0.21116280271E+03  0.12509000000E+03 0.  0.
         25    1    3    3    0    0 -0.91383714009E+01 -0.97195702005E+01 -0.42972996806E+02  0.13293670084E+03  0.12509000000E+03 0.  0.
<mgrwt>
<rscale>  2 0.44172114E+03</rscale>
<asrwt>0</asrwt>
<pdfrwt beam="1">  1       21 0.21834588E-01 0.44172114E+03</pdfrwt>
<pdfrwt beam="2">  1       21 0.48314062E-01 0.44172114E+03</pdfrwt>
<totfact> 0.74463378E+04</totfact>
</mgrwt>
</event>
<event>
 6    0  0.1539497E-004  0.4701534E+03  0.7546771E-02  0.1021877E+00
         21   -1    0    0  502  501  0.00000000000E+00  0.00000000000E+00  0.38696763376E+03  0.38696763376E+03  0.00000000000E+00 0.  1.
         21   -1    0    0  501  502 -0.00000000000E+00 -0.00000000000E+00 -0.14280537894E+03  0.14280537894E+03  0.00000000000E+00 0.  1.
      99925    2    1    2    0    0  0.74873210579E+02  0.85445149439E+02  0.21524556959E+03  0.35833627799E+03  0.26299688528E+03 0.  0.
         25    1    1    2    0    0 -0.74873210579E+02 -0.85445149439E+02  0.28916685229E+02  0.17143673472E+03  0.12509000000E+03 0.  0.
         25    1    3    3    0    0  0.35541962162E+02  0.63475399438E+02  0.15599051925E+03  0.21277431143E+03  0.12509000000E+03 0.  0.
         25    1    3    3    0    0  0.39331248417E+02  0.21969750001E+02  0.59255050344E+02  0.14556196656E+03  0.12509000000E+03 0.  0.
<mgrwt>
<rscale>  2 0.47015342E+03</rscale>
<asrwt>0</asrwt>
<pdfrwt beam="1">  1       21 0.56907005E-01 0.47015342E+03</pdfrwt>
<pdfrwt beam="2">  1       21 0.21000791E-01 0.47015342E+03</pdfrwt>
<totfact> 0.56164162E+04</totfact>
</mgrwt>
</event>
<event>
 6    0  0.1539497E-004  0.4107379E+03  0.7546771E-02  0.1040124E+00
         21   -1    0    0  502  501  0.00000000000E+00  0.00000000000E+00  0.19769254344E+04  0.19769254344E+04  0.00000000000E+00 0. -1.
         21   -1    0    0  501  502 -0.00000000000E+00 -0.00000000000E+00 -0.21334340660E+02  0.21334340660E+02  0.00000000000E+00 0. -1.
      99925    2    1    2    0    0  0.67501402110E+01  0.21486967811E+02  0.15759842928E+04  0.15979397960E+04  0.26301681783E+03 0.  0.
         25    1    1    2    0    0 -0.67501402110E+01 -0.21486967811E+02  0.37960680101E+03  0.40031997908E+03  0.12509000000E+03 0.  0.
         25    1    3    3    0    0  0.24659473929E+02  0.45029318801E+02  0.84079765709E+03  0.85160080876E+03  0.12509000000E+03 0.  0.
         25    1    3    3    0    0 -0.17909333718E+02 -0.23542350990E+02  0.73518663567E+03  0.74633898725E+03  0.12509000000E+03 0.  0.
<mgrwt>
<rscale>  2 0.41073788E+03</rscale>
<asrwt>0</asrwt>
<pdfrwt beam="1">  1       21 0.29072420E+00 0.41073788E+03</pdfrwt>
<pdfrwt beam="2">  1       21 0.31374044E-02 0.41073788E+03</pdfrwt>
<totfact> 0.19681741E+04</totfact>
</mgrwt>
</event>
<event>
 6    0  0.1539497E-004  0.4085780E+03  0.7546771E-02  0.1040849E+00
         21   -1    0    0  502  501  0.00000000000E+00  0.00000000000E+00  0.17760524522E+03  0.17760524522E+03  0.00000000000E+00 0. -1.
         21   -1    0    0  501  502 -0.00000000000E+00 -0.00000000000E+00 -0.23498173112E+03  0.23498173112E+03  0.00000000000E+00 0. -1.
      99925    2    1    2    0    0  0.99046521064E+01  0.58757877776E+02 -0.25786026975E+02  0.27047414958E+03  0.26256571762E+03 0.  0.
         25    1    3    3    0    0 -0.13152510237E+02  0.65352532996E+02 -0.17773389459E+02  0.14285427389E+03  0.12509000000E+03 0.  0.
         25    1    3    3    0    0  0.23057162343E+02 -0.65946552204E+01 -0.80126375160E+01  0.12761987570E+03  0.12509000000E+03 0.  0.
         25    1    1    2    0    0 -0.99046521064E+01 -0.58757877776E+02 -0.31590458920E+02  0.14211282676E+03  0.12509000000E+03 0.  0.
<mgrwt>
<rscale>  2 0.40857796E+03</rscale>
<asrwt>0</asrwt>
<pdfrwt beam="1">  1       21 0.26118418E-01 0.40857796E+03</pdfrwt>
<pdfrwt beam="2">  1       21 0.34556137E-01 0.40857796E+03</pdfrwt>
<totfact> 0.10587183E+05</totfact>
</mgrwt>
</event>
<event>
 6    0  0.1539497E-004  0.5300403E+03  0.7546771E-02  0.1006222E+00
         21   -1    0    0  502  501  0.00000000000E+00  0.00000000000E+00  0.52007448985E+03  0.52007448985E+03  0.00000000000E+00 0. -1.
         21   -1    0    0  501  502 -0.00000000000E+00 -0.00000000000E+00 -0.13504924981E+03  0.13504924981E+03  0.00000000000E+00 0. -1.
      99925    2    1    2    0    0  0.16226649150E+03  0.46320593476E+02  0.17510417083E+03  0.35815509646E+03  0.26294027998E+03 0.  0.
         25    1    1    2    0    0 -0.16226649150E+03 -0.46320593476E+02  0.20992106921E+03  0.29696864319E+03  0.12509000000E+03 0.  0.
         25    1    3    3    0    0  0.11500896629E+03 -0.28526485675E+01  0.96590245024E+02  0.19547987995E+03  0.12509000000E+03 0.  0.
         25    1    3    3    0    0  0.47257525210E+02  0.49173242043E+02  0.78513925808E+02  0.16267521651E+03  0.12509000000E+03 0.  0.
<mgrwt>
<rscale>  2 0.53004026E+03</rscale>
<asrwt>0</asrwt>
<pdfrwt beam="1">  1       21 0.76481542E-01 0.53004026E+03</pdfrwt>
<pdfrwt beam="2">  1       21 0.19860184E-01 0.53004026E+03</pdfrwt>
<totfact> 0.31889737E+04</totfact>
</mgrwt>
</event>
<event>
 6    0  0.1539497E-004  0.4053376E+03  0.7546771E-02  0.1041947E+00
         21   -1    0    0  502  501  0.00000000000E+00  0.00000000000E+00  0.86049915912E+03  0.86049915912E+03  0.00000000000E+00 0. -1.
         21   -1    0    0  501  502 -0.00000000000E+00 -0.00000000000E+00 -0.47733498313E+02  0.47733498313E+02  0.00000000000E+00 0. -1.
      99925    2    1    2    0    0 -0.38650117579E+02  0.31784067554E+02  0.48697417889E+03  0.55568243926E+03  0.26293547472E+03 0.  0.
         25    1    3    3    0    0 -0.13142461425E+02  0.50015522635E+02  0.20550842307E+03  0.24608026505E+03  0.12509000000E+03 0.  0.
         25    1    3    3    0    0 -0.25507656154E+02 -0.18231455081E+02  0.28146575582E+03  0.30960217421E+03  0.12509000000E+03 0.  0.
         25    1    1    2    0    0  0.38650117579E+02 -0.31784067554E+02  0.32579148192E+03  0.35255021817E+03  0.12509000000E+03 0.  0.
<mgrwt>
<rscale>  2 0.40533756E+03</rscale>
<asrwt>0</asrwt>
<pdfrwt beam="1">  1       21 0.12654398E+00 0.40533756E+03</pdfrwt>
<pdfrwt beam="2">  1       21 0.70196326E-02 0.40533756E+03</pdfrwt>
<totfact> 0.64540691E+04</totfact>
</mgrwt>
</event>
<event>
 6    0  0.1539497E-004  0.4389308E+03  0.7546771E-02  0.1031075E+00
         21   -1    0    0  502  501  0.00000000000E+00  0.00000000000E+00  0.38467732828E+03  0.38467732828E+03  0.00000000000E+00 0.  1.
         21   -1    0    0  501  502 -0.00000000000E+00 -0.00000000000E+00 -0.12520897324E+03  0.12520897324E+03  0.00000000000E+00 0.  1.
      99925    2    1    2    0    0  0.91015254970E+02 -0.35327423137E+02  0.16282087601E+03  0.32409058906E+03  0.26266379421E+03 0.  0.
         25    1    1    2    0    0 -0.91015254970E+02  0.35327423137E+02  0.96647479031E+02  0.18579571245E+03  0.12509000000E+03 0.  0.
         25    1    3    3    0    0  0.58060480609E+02 -0.54459190485E+02  0.10133297862E+03  0.17959037695E+03  0.12509000000E+03 0.  0.
         25    1    3    3    0    0  0.32954774360E+02  0.19131767349E+02  0.61487897395E+02  0.14450021211E+03  0.12509000000E+03 0.  0.
<mgrwt>
<rscale>  2 0.43893076E+03</rscale>
<asrwt>0</asrwt>
<pdfrwt beam="1">  1       21 0.56570195E-01 0.43893076E+03</pdfrwt>
<pdfrwt beam="2">  1       21 0.18413084E-01 0.43893076E+03</pdfrwt>
<totfact> 0.73514707E+04</totfact>
</mgrwt>
</event>
<event>
 6    0  0.1539497E-004  0.4589787E+03  0.7546771E-02  0.1025078E+00
         21   -1    0    0  502  501  0.00000000000E+00  0.00000000000E+00  0.25677817883E+03  0.25677817883E+03  0.00000000000E+00 0. -1.
         21   -1    0    0  501  502 -0.00000000000E+00 -0.00000000000E+00 -0.20510063246E+03  0.20510063246E+03  0.00000000000E+00 0. -1.
      99925    2    1    2    0    0  0.47849771394E+02 -0.19755668302E+02  0.13781687632E+03  0.30141891189E+03  0.26302087748E+03 0.  0.
         25    1    3    3    0    0  0.34940433875E+02 -0.26412243635E+02  0.11050454797E+03  0.17256072484E+03  0.12509000000E+03 0.  0.
         25    1    1    2    0    0 -0.47849771394E+02  0.19755668302E+02 -0.86139329946E+02  0.16045989940E+03  0.12509000000E+03 0.  0.
         25    1    3    3    0    0  0.12909337519E+02  0.66565753322E+01  0.27312328349E+02  0.12885818705E+03  0.12509000000E+03 0.  0.
<mgrwt>
<rscale>  2 0.45897872E+03</rscale>
<asrwt>0</asrwt>
<pdfrwt beam="1">  1       21 0.37761497E-01 0.45897872E+03</pdfrwt>
<pdfrwt beam="2">  1       21 0.30161858E-01 0.45897872E+03</pdfrwt>
<totfact> 0.65926919E+04</totfact>
</mgrwt>
</event>
<event>
 6    0  0.1539497E-004  0.4183033E+03  0.7546771E-02  0.1037620E+00
         21   -1    0    0  502  501  0.00000000000E+00  0.00000000000E+00  0.40312316990E+02  0.40312316990E+02  0.00000000000E+00 0. -1.
         21   -1    0    0  501  502 -0.00000000000E+00 -0.00000000000E+00 -0.10851378676E+04  0.10851378676E+04  0.00000000000E+00 0. -1.
      99925    2    1    2    0    0  0.30533770788E+02  0.66781161619E+01 -0.50283486028E+03  0.56833410611E+03  0.26302823244E+03 0.  0.
         25    1    1    2    0    0 -0.30533770788E+02 -0.66781161619E+01 -0.54199069028E+03  0.55711607843E+03  0.12509000000E+03 0.  0.
         25    1    3    3    0    0  0.11936098325E+02  0.39959191101E+02 -0.21548780434E+03  0.25262958916E+03  0.12509000000E+03 0.  0.
         25    1    3    3    0    0  0.18597672463E+02 -0.33281074939E+02 -0.28734705594E+03  0.31570451696E+03  0.12509000000E+03 0.  0.
<mgrwt>
<rscale>  2 0.41830334E+03</rscale>
<asrwt>0</asrwt>
<pdfrwt beam="1">  1       21 0.59282814E-02 0.41830334E+03</pdfrwt>
<pdfrwt beam="2">  1       21 0.15957911E+00 0.41830334E+03</pdfrwt>
<totfact> 0.46576649E+04</totfact>
</mgrwt>
</event>
<event>
 6    0  0.1539497E-004  0.4273403E+03  0.7546771E-02  0.1034703E+00
         21   -1    0    0  502  501  0.00000000000E+00  0.00000000000E+00  0.16328172948E+03  0.16328172948E+03  0.00000000000E+00 0.  1.
         21   -1    0    0  501  502 -0.00000000000E+00 -0.00000000000E+00 -0.27960835679E+03  0.27960835679E+03  0.00000000000E+00 0.  1.
      99925    2    1    2    0    0  0.17244845598E+02 -0.66567451596E+02 -0.23618480933E+02  0.27268162932E+03  0.26280948996E+03 0.  0.
         25    1    3    3    0    0 -0.25916234009E+01  0.61596576159E+01 -0.41102704865E+01  0.12533579025E+03  0.12509000000E+03 0.  0.
         25    1    1    2    0    0 -0.17244845598E+02  0.66567451596E+02 -0.92708146381E+02  0.17020845695E+03  0.12509000000E+03 0.  0.
         25    1    3    3    0    0  0.19836468999E+02 -0.72727109212E+02 -0.19508210446E+02  0.14734583907E+03  0.12509000000E+03 0.  0.
<mgrwt>
<rscale>  2 0.42734031E+03</rscale>
<asrwt>0</asrwt>
<pdfrwt beam="1">  1       21 0.24012019E-01 0.42734031E+03</pdfrwt>
<pdfrwt beam="2">  1       21 0.41118876E-01 0.42734031E+03</pdfrwt>
<totfact> 0.87104780E+04</totfact>
</mgrwt>
</event>
<event>
 6    0  0.1539497E-004  0.3964542E+03  0.7546771E-02  0.1045014E+00
         21   -1    0    0  502  501  0.00000000000E+00  0.00000000000E+00  0.35833787797E+03  0.35833787797E+03  0.00000000000E+00 0.  1.
         21   -1    0    0  501  502 -0.00000000000E+00 -0.00000000000E+00 -0.10965625208E+03  0.10965625208E+03  0.00000000000E+00 0.  1.
      99925    2    1    2    0    0  0.32833128035E+02  0.93063226935E+01  0.18601574087E+03  0.32398321664E+03  0.26305635683E+03 0.  0.
         25    1    3    3    0    0 -0.21127144926E+02  0.54720112150E+01  0.10958725649E+03  0.16772946683E+03  0.12509000000E+03 0.  0.
         25    1    3    3    0    0  0.53960272960E+02  0.38343114785E+01  0.76428484386E+02  0.15625374980E+03  0.12509000000E+03 0.  0.
         25    1    1    2    0    0 -0.32833128035E+02 -0.93063226935E+01  0.62665885017E+02  0.14401091342E+03  0.12509000000E+03 0.  0.
<mgrwt>
<rscale>  2 0.39645423E+03</rscale>
<asrwt>0</asrwt>
<pdfrwt beam="1">  1       21 0.52696746E-01 0.39645423E+03</pdfrwt>
<pdfrwt beam="2">  1       21 0.16125920E-01 0.39645423E+03</pdfrwt>
<totfact> 0.11076501E+05</totfact>
</mgrwt>
</event>
<event>
 6    0  0.1539497E-004  0.3912855E+03  0.7546771E-02  0.1046840E+00
         21   -1    0    0  502  501  0.00000000000E+00  0.00000000000E+00  0.59499831642E+02  0.59499831642E+02  0.00000000000E+00 0. -1.
         21   -1    0    0  501  502 -0.00000000000E+00 -0.00000000000E+00 -0.64329736644E+03  0.64329736644E+03  0.00000000000E+00 0. -1.
      99925    2    1    2    0    0 -0.18995591941E+02  0.75886919284E+00 -0.37144481494E+03  0.45560780890E+03  0.26314599861E+03 0.  0.
         25    1    1    2    0    0  0.18995591941E+02 -0.75886919284E+00 -0.21235271986E+03  0.24718938919E+03  0.12509000000E+03 0.  0.
         25    1    3    3    0    0  0.24963435509E+02  0.55575649810E+01 -0.21911179970E+03  0.25359721707E+03  0.12509000000E+03 0.  0.
         25    1    3    3    0    0 -0.43959027450E+02 -0.47986957881E+01 -0.15233301525E+03  0.20201059182E+03  0.12509000000E+03 0.  0.
<mgrwt>
<rscale>  2 0.39128550E+03</rscale>
<asrwt>0</asrwt>
<pdfrwt beam="1">  1       21 0.87499752E-02 0.39128550E+03</pdfrwt>
<pdfrwt beam="2">  1       21 0.94602555E-01 0.39128550E+03</pdfrwt>
<totfact> 0.90142090E+04</totfact>
</mgrwt>
</event>
<event>
 6    0  0.1539497E-004  0.4466192E+03  0.7546771E-02  0.1028735E+00
         21   -1    0    0  502  501  0.00000000000E+00  0.00000000000E+00  0.40060902215E+03  0.40060902215E+03  0.00000000000E+00 0. -1.
         21   -1    0    0  501  502 -0.00000000000E+00 -0.00000000000E+00 -0.12447843621E+03  0.12447843621E+03  0.00000000000E+00 0. -1.
      99925    2    1    2    0    0  0.80354126467E+02 -0.60833496942E+01  0.25450803298E+03  0.37472511042E+03  0.26296535274E+03 0.  0.
         25    1    3    3    0    0  0.32120135149E+02 -0.24718954817E+02  0.17088923086E+03  0.21562320639E+03  0.12509000000E+03 0.  0.
         25    1    1    2    0    0 -0.80354126467E+02  0.60833496942E+01  0.21622552963E+02  0.15036234795E+03  0.12509000000E+03 0.  0.
         25    1    3    3    0    0  0.48233991318E+02  0.18635605123E+02  0.83618802126E+02  0.15910190403E+03  0.12509000000E+03 0.  0.
<mgrwt>
<rscale>  2 0.44661923E+03</rscale>
<asrwt>0</asrwt>
<pdfrwt beam="1">  1       21 0.58913091E-01 0.44661923E+03</pdfrwt>
<pdfrwt beam="2">  1       21 0.18305653E-01 0.44661923E+03</pdfrwt>
<totfact> 0.67940176E+04</totfact>
</mgrwt>
</event>
<event>
 6    0  0.1539497E-004  0.4317370E+03  0.7546771E-02  0.1033313E+00
         21   -1    0    0  502  501  0.00000000000E+00  0.00000000000E+00  0.14402947990E+03  0.14402947990E+03  0.00000000000E+00 0.  1.
         21   -1    0    0  501  502 -0.00000000000E+00 -0.00000000000E+00 -0.32353945468E+03  0.32353945468E+03  0.00000000000E+00 0.  1.
      99925    2    1    2    0    0  0.34514971280E+02 -0.60594417360E+02 -0.17688984039E+03  0.32433018332E+03  0.26274909234E+03 0.  0.
         25    1    3    3    0    0  0.16037931783E+02 -0.29410626917E+02 -0.40349712051E+02  0.13563851811E+03  0.12509000000E+03 0.  0.
         25    1    3    3    0    0  0.18477039497E+02 -0.31183790443E+02 -0.13654012834E+03  0.18869166522E+03  0.12509000000E+03 0.  0.
         25    1    1    2    0    0 -0.34514971280E+02  0.60594417360E+02 -0.26201343926E+01  0.14323875126E+03  0.12509000000E+03 0.  0.
<mgrwt>
<rscale>  2 0.43173705E+03</rscale>
<asrwt>0</asrwt>
<pdfrwt beam="1">  1       21 0.21180806E-01 0.43173705E+03</pdfrwt>
<pdfrwt beam="2">  1       21 0.47579332E-01 0.43173705E+03</pdfrwt>
<totfact> 0.81689983E+04</totfact>
</mgrwt>
</event>
<event>
 6    0  0.1539497E-004  0.4028732E+03  0.7546771E-02  0.1042789E+00
         21   -1    0    0  502  501  0.00000000000E+00  0.00000000000E+00  0.54931495901E+03  0.54931495901E+03  0.00000000000E+00 0. -1.
         21   -1    0    0  501  502 -0.00000000000E+00 -0.00000000000E+00 -0.73867813763E+02  0.73867813763E+02  0.00000000000E+00 0. -1.
      99925    2    1    2    0    0 -0.16689763829E+02  0.40946172115E+02  0.27717530314E+03  0.38461544748E+03  0.26295961009E+03 0.  0.
         25    1    3    3    0    0 -0.30929694849E+02  0.53175532891E+02  0.13075811287E+03  0.19112685710E+03  0.12509000000E+03 0.  0.
         25    1    3    3    0    0  0.14239931020E+02 -0.12229360776E+02  0.14641719027E+03  0.19348859038E+03  0.12509000000E+03 0.  0.
         25    1    1    2    0    0  0.16689763829E+02 -0.40946172115E+02  0.19827184211E+03  0.23856732530E+03  0.12509000000E+03 0.  0.
<mgrwt>
<rscale>  2 0.40287316E+03</rscale>
<asrwt>0</asrwt>
<pdfrwt beam="1">  1       21 0.80781610E-01 0.40287316E+03</pdfrwt>
<pdfrwt beam="2">  1       21 0.10862914E-01 0.40287316E+03</pdfrwt>
<totfact> 0.88398880E+04</totfact>
</mgrwt>
</event>
<event>
 6    0  0.1539497E-004  0.4006731E+03  0.7546771E-02  0.1043547E+00
         21   -1    0    0  502  501  0.00000000000E+00  0.00000000000E+00  0.14019634908E+04  0.14019634908E+04  0.00000000000E+00 0. -1.
         21   -1    0    0  501  502 -0.00000000000E+00 -0.00000000000E+00 -0.28627511245E+02  0.28627511245E+02  0.00000000000E+00 0. -1.
      99925    2    1    2    0    0  0.35963444470E+02 -0.10154504454E+02  0.10158925961E+04  0.10500522212E+04  0.26301219935E+03 0.  0.
         25    1    3    3    0    0  0.57226245570E+02 -0.16162170859E+02  0.54581535201E+03  0.56311452258E+03  0.12509000000E+03 0.  0.
         25    1    1    2    0    0 -0.35963444470E+02  0.10154504454E+02  0.35744338342E+03  0.38053878087E+03  0.12509000000E+03 0.  0.
         25    1    3    3    0    0 -0.21262801101E+02  0.60076664057E+01  0.47007724413E+03  0.48693769860E+03  0.12509000000E+03 0.  0.
<mgrwt>
<rscale>  2 0.40067306E+03</rscale>
<asrwt>0</asrwt>
<pdfrwt beam="1">  1       21 0.20617106E+00 0.40067306E+03</pdfrwt>
<pdfrwt beam="2">  1       21 0.42099291E-02 0.40067306E+03</pdfrwt>
<totfact> 0.39901394E+04</totfact>
</mgrwt>
</event>
<event>
 6    0  0.1545330E-004  0.4019109E+03  0.7546771E-02  0.1043120E+00
         21   -1    0    0  502  501  0.00000000000E+00  0.00000000000E+00  0.43032176526E+03  0.43032176526E+03  0.00000000000E+00 0.  1.
         21   -1    0    0  501  502 -0.00000000000E+00 -0.00000000000E+00 -0.93843970167E+02  0.93843970167E+02  0.00000000000E+00 0.  1.
      99925    2    1    2    0    0 -0.33217745610E+02  0.26128483494E+02  0.19115062657E+03  0.32781500259E+03  0.26294105350E+03 0.  0.
         25    1    3    3    0    0 -0.60125627203E+01  0.48716966910E+02  0.11692151353E+03  0.17812254827E+03  0.12509000000E+03 0.  0.
         25    1    3    3    0    0 -0.27205182890E+02 -0.22588483416E+02  0.74229113033E+02  0.14969245432E+03  0.12509000000E+03 0.  0.
         25    1    1    2    0    0  0.33217745610E+02 -0.26128483494E+02  0.14532716853E+03  0.19635073284E+03  0.12509000000E+03 0.  0.
<mgrwt>
<rscale>  2 0.40191095E+03</rscale>
<asrwt>0</asrwt>
<pdfrwt beam="1">  1       21 0.63282612E-01 0.40191095E+03</pdfrwt>
<pdfrwt beam="2">  1       21 0.13800584E-01 0.40191095E+03</pdfrwt>
<totfact> 0.99168185E+04</totfact>
</mgrwt>
</event>
<event>
 6    0  0.1539497E-004  0.3895694E+03  0.7546771E-02  0.1047452E+00
         21   -1    0    0  502  501  0.00000000000E+00  0.00000000000E+00  0.19801371918E+03  0.19801371918E+03  0.00000000000E+00 0.  1.
         21   -1    0    0  501  502 -0.00000000000E+00 -0.00000000000E+00 -0.19160835185E+03  0.19160835185E+03  0.00000000000E+00 0.  1.
      99925    2    1    2    0    0 -0.18560761933E+01  0.10547738424E+02 -0.72657354424E+01  0.26333229728E+03  0.26301408341E+03 0.  0.
         25    1    1    2    0    0  0.18560761933E+01 -0.10547738424E+02  0.13671102777E+02  0.12628977376E+03  0.12509000000E+03 0.  0.
         25    1    3    3    0    0  0.15491837580E+02  0.39657179406E+02 -0.17685964993E+02  0.13331537934E+03  0.12509000000E+03 0.  0.
         25    1    3    3    0    0 -0.17347913773E+02 -0.29109440982E+02  0.10420229550E+02  0.13001691794E+03  0.12509000000E+03 0.  0.
<mgrwt>
<rscale>  2 0.38956942E+03</rscale>
<asrwt>0</asrwt>
<pdfrwt beam="1">  1       21 0.29119665E-01 0.38956942E+03</pdfrwt>
<pdfrwt beam="2">  1       21 0.28177699E-01 0.38956942E+03</pdfrwt>
<totfact> 0.12887400E+05</totfact>
</mgrwt>
</event>
<event>
 6    0  0.1539497E-004  0.4151080E+03  0.7546771E-02  0.1038670E+00
         21   -1    0    0  502  501  0.00000000000E+00  0.00000000000E+00  0.43474533865E+03  0.43474533865E+03  0.00000000000E+00 0.  1.
         21   -1    0    0  501  502 -0.00000000000E+00 -0.00000000000E+00 -0.99089417663E+02  0.99089417663E+02  0.00000000000E+00 0.  1.
      99925    2    1    2    0    0  0.51025343627E+02  0.82040023025E+01  0.27963624951E+03  0.38735403048E+03  0.26301296840E+03 0.  0.
         25    1    1    2    0    0 -0.51025343627E+02 -0.82040023025E+01  0.56019671473E+02  0.14648072582E+03  0.12509000000E+03 0.  0.
         25    1    3    3    0    0  0.42463107227E+02 -0.17874380356E+02  0.18541748242E+03  0.22836321910E+03  0.12509000000E+03 0.  0.
         25    1    3    3    0    0  0.85622363995E+01  0.26078382658E+02  0.94218767086E+02  0.15899081139E+03  0.12509000000E+03 0.  0.
<mgrwt>
<rscale>  2 0.41510800E+03</rscale>
<asrwt>0</asrwt>
<pdfrwt beam="1">  1       21 0.63933137E-01 0.41510800E+03</pdfrwt>
<pdfrwt beam="2">  1       21 0.14571973E-01 0.41510800E+03</pdfrwt>
<totfact> 0.87462150E+04</totfact>
</mgrwt>
</event>
<event>
 6    0  0.1539497E-004  0.5806184E+03  0.7546771E-02  0.9946453E-01
         21   -1    0    0  502  501  0.00000000000E+00  0.00000000000E+00  0.25947734384E+03  0.25947734384E+03  0.00000000000E+00 0.  1.
         21   -1    0    0  501  502 -0.00000000000E+00 -0.00000000000E+00 -0.32480454168E+03  0.32480454168E+03  0.00000000000E+00 0.  1.
      99925    2    1    2    0    0 -0.36700367073E+02  0.17460082736E+03 -0.14883665846E+03  0.35092871118E+03  0.26299475959E+03 0.  0.
         25    1    3    3    0    0 -0.48053772556E+01  0.13110423504E+03 -0.77295013479E+02  0.19706201893E+03  0.12509000000E+03 0.  0.
         25    1    1    2    0    0  0.36700367073E+02 -0.17460082736E+03  0.83509460614E+02  0.23335317433E+03  0.12509000000E+03 0.  0.
         25    1    3    3    0    0 -0.31894989817E+02  0.43496592325E+02 -0.71541644978E+02  0.15386669225E+03  0.12509000000E+03 0.  0.
<mgrwt>
<rscale>  2 0.58061836E+03</rscale>
<asrwt>0</asrwt>
<pdfrwt beam="1">  1       21 0.38158433E-01 0.58061836E+03</pdfrwt>
<pdfrwt beam="2">  1       21 0.47765373E-01 0.58061836E+03</pdfrwt>
<totfact> 0.24518013E+04</totfact>
</mgrwt>
</event>
<event>
 6    0  0.1539497E-004  0.4074080E+03  0.7546771E-02  0.1041244E+00
         21   -1    0    0  502  501  0.00000000000E+00  0.00000000000E+00  0.35726082489E+02  0.35726082489E+02  0.00000000000E+00 0. -1.
         21   -1    0    0  501  502 -0.00000000000E+00 -0.00000000000E+00 -0.11614853390E+04  0.11614853390E+04  0.00000000000E+00 0. -1.
      99925    2    1    2    0    0 -0.49663447661E+02 -0.30524608784E+02 -0.73491385400E+03  0.78271673330E+03  0.26296178812E+03 0.  0.
         25    1    1    2    0    0  0.49663447661E+02  0.30524608784E+02 -0.39084540256E+03  0.41449468824E+03  0.12509000000E+03 0.  0.
         25    1    3    3    0    0  0.28597089454E+01  0.13026404316E+02 -0.37937484995E+03  0.39968819099E+03  0.12509000000E+03 0.  0.
         25    1    3    3    0    0 -0.52523156606E+02 -0.43551013099E+02 -0.35553900405E+03  0.38302854231E+03  0.12509000000E+03 0.  0.
<mgrwt>
<rscale>  2 0.40740801E+03</rscale>
<asrwt>0</asrwt>
<pdfrwt beam="1">  1       21 0.52538356E-02 0.40740801E+03</pdfrwt>
<pdfrwt beam="2">  1       21 0.17080667E+00 0.40740801E+03</pdfrwt>
<totfact> 0.47583495E+04</totfact>
</mgrwt>
</event>
<event>
 6    0  0.1539497E-004  0.4242013E+03  0.7546771E-02  0.1035708E+00
         21   -1    0    0  502  501  0.00000000000E+00  0.00000000000E+00  0.30869958353E+03  0.30869958353E+03  0.00000000000E+00 0.  1.
         21   -1    0    0  501  502 -0.00000000000E+00 -0.00000000000E+00 -0.14572963297E+03  0.14572963297E+03  0.00000000000E+00 0.  1.
      99925    2    1    2    0    0  0.66098755050E+02  0.79033975173E+01  0.56193770451E+02  0.27700269692E+03  0.26294722884E+03 0.  0.
         25    1    3    3    0    0  0.32045069070E+02 -0.35648586771E+02  0.19228277950E+02  0.13533271210E+03  0.12509000000E+03 0.  0.
         25    1    1    2    0    0 -0.66098755050E+02 -0.79033975173E+01  0.10677618011E+03  0.17742651958E+03  0.12509000000E+03 0.  0.
         25    1    3    3    0    0  0.34053685981E+02  0.43551984288E+02  0.36965492501E+02  0.14166998482E+03  0.12509000000E+03 0.  0.
<mgrwt>
<rscale>  2 0.42420126E+03</rscale>
<asrwt>0</asrwt>
<pdfrwt beam="1">  1       21 0.45396998E-01 0.42420126E+03</pdfrwt>
<pdfrwt beam="2">  1       21 0.21430828E-01 0.42420126E+03</pdfrwt>
<totfact> 0.88296901E+04</totfact>
</mgrwt>
</event>
<event>
 6    0  0.1539497E-004  0.4051922E+03  0.7546771E-02  0.1041996E+00
         21   -1    0    0  502  501  0.00000000000E+00  0.00000000000E+00  0.24055743874E+03  0.24055743874E+03  0.00000000000E+00 0.  1.
         21   -1    0    0  501  502 -0.00000000000E+00 -0.00000000000E+00 -0.17062526660E+03  0.17062526660E+03  0.00000000000E+00 0.  1.
      99925    2    1    2    0    0  0.11862044059E+02 -0.47022196485E+02  0.20602621206E+02  0.26823968262E+03  0.26301381005E+03 0.  0.
         25    1    3    3    0    0  0.24703993612E+01 -0.12473437962E+02  0.49205840953E+02  0.13502004448E+03  0.12509000000E+03 0.  0.
         25    1    3    3    0    0  0.93916446979E+01 -0.34548758523E+02 -0.28603219748E+02  0.13321963814E+03  0.12509000000E+03 0.  0.
         25    1    1    2    0    0 -0.11862044059E+02  0.47022196485E+02  0.49329550934E+02  0.14294302273E+03  0.12509000000E+03 0.  0.
<mgrwt>
<rscale>  2 0.40519219E+03</rscale>
<asrwt>0</asrwt>
<pdfrwt beam="1">  1       21 0.35376094E-01 0.40519219E+03</pdfrwt>
<pdfrwt beam="2">  1       21 0.25091951E-01 0.40519219E+03</pdfrwt>
<totfact> 0.10924543E+05</totfact>
</mgrwt>
</event>
<event>
 6    0  0.1539497E-004  0.4975180E+03  0.7546771E-02  0.1014429E+00
         21   -1    0    0  502  501  0.00000000000E+00  0.00000000000E+00  0.26476225445E+02  0.26476225445E+02  0.00000000000E+00 0. -1.
         21   -1    0    0  501  502 -0.00000000000E+00 -0.00000000000E+00 -0.23372304022E+04  0.23372304022E+04  0.00000000000E+00 0. -1.
      99925    2    1    2    0    0 -0.40960506974E+02  0.12277831888E+03 -0.10495136424E+04  0.10896864267E+04  0.26303107101E+03 0.  0.
         25    1    1    2    0    0  0.40960506974E+02 -0.12277831888E+03 -0.12612405343E+04  0.12740202009E+04  0.12509000000E+03 0.  0.
         25    1    3    3    0    0  0.16669554945E+02  0.57595065502E+02 -0.43607033894E+03  0.45760235384E+03  0.12509000000E+03 0.  0.
         25    1    3    3    0    0 -0.57630061920E+02  0.65183253377E+02 -0.61344330345E+03  0.63208407290E+03  0.12509000000E+03 0.  0.
<mgrwt>
<rscale>  2 0.49751800E+03</rscale>
<asrwt>0</asrwt>
<pdfrwt beam="1">  1       21 0.38935637E-02 0.49751800E+03</pdfrwt>
<pdfrwt beam="2">  1       21 0.34371025E+00 0.49751800E+03</pdfrwt>
<totfact> 0.62831301E+03</totfact>
</mgrwt>
</event>
<event>
 6    0  0.1539497E-004  0.4168771E+03  0.7546771E-02  0.1038088E+00
         21   -1    0    0  502  501  0.00000000000E+00  0.00000000000E+00  0.10408404629E+03  0.10408404629E+03  0.00000000000E+00 0. -1.
         21   -1    0    0  501  502 -0.00000000000E+00 -0.00000000000E+00 -0.41741869685E+03  0.41741869685E+03  0.00000000000E+00 0. -1.
      99925    2    1    2    0    0 -0.42504124237E+01 -0.56278128386E+02 -0.15126753430E+03  0.30913854650E+03  0.26362754078E+03 0.  0.
         25    1    3    3    0    0 -0.30668973469E+02 -0.34674331270E+02 -0.11053513154E+03  0.17322938142E+03  0.12509000000E+03 0.  0.
         25    1    1    2    0    0  0.42504124237E+01  0.56278128386E+02 -0.16206711626E+03  0.21236419664E+03  0.12509000000E+03 0.  0.
         25    1    3    3    0    0  0.26418561046E+02 -0.21603797115E+02 -0.40732402762E+02  0.13590916508E+03  0.12509000000E+03 0.  0.
<mgrwt>
<rscale>  2 0.41687709E+03</rscale>
<asrwt>0</asrwt>
<pdfrwt beam="1">  1       21 0.15306477E-01 0.41687709E+03</pdfrwt>
<pdfrwt beam="2">  1       21 0.61385102E-01 0.41687709E+03</pdfrwt>
<totfact> 0.87306965E+04</totfact>
</mgrwt>
</event>
<event>
 6    0  0.1539497E-004  0.4187968E+03  0.7546771E-02  0.1037459E+00
         21   -1    0    0  502  501  0.00000000000E+00  0.00000000000E+00  0.33104118223E+03  0.33104118223E+03  0.00000000000E+00 0.  1.
         21   -1    0    0  501  502 -0.00000000000E+00 -0.00000000000E+00 -0.13245390480E+03  0.13245390480E+03  0.00000000000E+00 0.  1.
      99925    2    1    2    0    0  0.43068820236E+02 -0.20781136383E+02  0.66936451363E+02  0.27570204400E+03  0.26314321127E+03 0.  0.
         25    1    1    2    0    0 -0.43068820236E+02  0.20781136383E+02  0.13165082607E+03  0.18779304303E+03  0.12509000000E+03 0.  0.
         25    1    3    3    0    0  0.28926957369E+02  0.23534119809E+02  0.55218802718E+02  0.14172948857E+03  0.12509000000E+03 0.  0.
         25    1    3    3    0    0  0.14141862867E+02 -0.44315256192E+02  0.11717648645E+02  0.13397255542E+03  0.12509000000E+03 0.  0.
<mgrwt>
<rscale>  2 0.41879683E+03</rscale>
<asrwt>0</asrwt>
<pdfrwt beam="1">  1       21 0.48682527E-01 0.41879683E+03</pdfrwt>
<pdfrwt beam="2">  1       21 0.19478515E-01 0.41879683E+03</pdfrwt>
<totfact> 0.91529269E+04</totfact>
</mgrwt>
</event>
<event>
 6    0  0.1539497E-004  0.4344804E+03  0.7546771E-02  0.1032454E+00
         21   -1    0    0  502  501  0.00000000000E+00  0.00000000000E+00  0.44982843713E+02  0.44982843713E+02  0.00000000000E+00 0. -1.
         21   -1    0    0  501  502 -0.00000000000E+00 -0.00000000000E+00 -0.10491400992E+04  0.10491400992E+04  0.00000000000E+00 0. -1.
      99925    2    1    2    0    0 -0.10611681548E+02  0.46250228720E+02 -0.84471969977E+03  0.88598949122E+03  0.26301010614E+03 0.  0.
         25    1    1    2    0    0  0.10611681548E+02 -0.46250228720E+02 -0.15943755573E+03  0.20813345171E+03  0.12509000000E+03 0.  0.
         25    1    3    3    0    0 -0.26972109612E+02  0.26426585371E+02 -0.54017264898E+03  0.55575161531E+03  0.12509000000E+03 0.  0.
         25    1    3    3    0    0  0.16360428064E+02  0.19823643349E+02 -0.30454705079E+03  0.33023787591E+03  0.12509000000E+03 0.  0.
<mgrwt>
<rscale>  2 0.43448040E+03</rscale>
<asrwt>0</asrwt>
<pdfrwt beam="1">  1       21 0.66151252E-02 0.43448040E+03</pdfrwt>
<pdfrwt beam="2">  1       21 0.15428528E+00 0.43448040E+03</pdfrwt>
<totfact> 0.42035304E+04</totfact>
</mgrwt>
</event>
<event>
 6    0  0.1539497E-004  0.4650629E+03  0.7546771E-02  0.1023323E+00
         21   -1    0    0  502  501  0.00000000000E+00  0.00000000000E+00  0.41597626871E+03  0.41597626871E+03  0.00000000000E+00 0. -1.
         21   -1    0    0  501  502 -0.00000000000E+00 -0.00000000000E+00 -0.12998550767E+03  0.12998550767E+03  0.00000000000E+00 0. -1.
      99925    2    1    2    0    0 -0.74051444245E+02 -0.78126834292E+02  0.24669668901E+03  0.37631817695E+03  0.26299942073E+03 0.  0.
         25    1    1    2    0    0  0.74051444245E+02  0.78126834292E+02  0.39294072040E+02  0.16964359943E+03  0.12509000000E+03 0.  0.
         25    1    3    3    0    0 -0.91701945061E+01 -0.26820237019E+02  0.15231560729E+03  0.19912551295E+03  0.12509000000E+03 0.  0.
         25    1    3    3    0    0 -0.64881249739E+02 -0.51306597273E+02  0.94381081713E+02  0.17719266400E+03  0.12509000000E+03 0.  0.
<mgrwt>
<rscale>  2 0.46506295E+03</rscale>
<asrwt>0</asrwt>
<pdfrwt beam="1">  1       21 0.61172980E-01 0.46506295E+03</pdfrwt>
<pdfrwt beam="2">  1       21 0.19115516E-01 0.46506295E+03</pdfrwt>
<totfact> 0.57421480E+04</totfact>
</mgrwt>
</event>
<event>
 6    0  0.1539497E-004  0.4197547E+03  0.7546771E-02  0.1037146E+00
         21   -1    0    0  502  501  0.00000000000E+00  0.00000000000E+00  0.14657039735E+03  0.14657039735E+03  0.00000000000E+00 0.  1.
         21   -1    0    0  501  502 -0.00000000000E+00 -0.00000000000E+00 -0.30052794349E+03  0.30052794349E+03  0.00000000000E+00 0.  1.
      99925    2    1    2    0    0  0.37073651190E+02 -0.43136398304E+02 -0.47368080873E+02  0.27319024247E+03  0.26297142245E+03 0.  0.
         25    1    3    3    0    0  0.19430218859E+02 -0.29719450879E+02 -0.64242495630E+02  0.14503580768E+03  0.12509000000E+03 0.  0.
         25    1    3    3    0    0  0.17643432331E+02 -0.13416947425E+02  0.16874414756E+02  0.12815443479E+03  0.12509000000E+03 0.  0.
         25    1    1    2    0    0 -0.37073651190E+02  0.43136398304E+02 -0.10658946527E+03  0.17390809836E+03  0.12509000000E+03 0.  0.
<mgrwt>
<rscale>  2 0.41975469E+03</rscale>
<asrwt>0</asrwt>
<pdfrwt beam="1">  1       21 0.21554470E-01 0.41975469E+03</pdfrwt>
<pdfrwt beam="2">  1       21 0.44195285E-01 0.41975469E+03</pdfrwt>
<totfact> 0.92450361E+04</totfact>
</mgrwt>
</event>
<event>
 6    0  0.1539497E-004  0.4017650E+03  0.7546771E-02  0.1043170E+00
         21   -1    0    0  502  501  0.00000000000E+00  0.00000000000E+00  0.13651402568E+03  0.13651402568E+03  0.00000000000E+00 0.  1.
         21   -1    0    0  501  502 -0.00000000000E+00 -0.00000000000E+00 -0.29560164444E+03  0.29560164444E+03  0.00000000000E+00 0.  1.
      99925    2    1    2    0    0  0.22337261556E+02  0.33964619120E+02 -0.77090074448E+02  0.27712001218E+03  0.26305906745E+03 0.  0.
         25    1    1    2    0    0 -0.22337261556E+02 -0.33964619120E+02 -0.81997544307E+02  0.15499565793E+03  0.12509000000E+03 0.  0.
         25    1    3    3    0    0  0.32033230277E+02 -0.17236506100E+02 -0.30201754270E+02  0.13372688228E+03  0.12509000000E+03 0.  0.
         25    1    3    3    0    0 -0.96959687204E+01  0.51201125220E+02 -0.46888320178E+02  0.14339312990E+03  0.12509000000E+03 0.  0.
<mgrwt>
<rscale>  2 0.40176496E+03</rscale>
<asrwt>0</asrwt>
<pdfrwt beam="1">  1       21 0.20075592E-01 0.40176496E+03</pdfrwt>
<pdfrwt beam="2">  1       21 0.43470830E-01 0.40176496E+03</pdfrwt>
<totfact> 0.10997690E+05</totfact>
</mgrwt>
</event>
<event>
 6    0  0.1539497E-004  0.4254903E+03  0.7546771E-02  0.1035294E+00
         21   -1    0    0  502  501  0.00000000000E+00  0.00000000000E+00  0.41823237437E+03  0.41823237437E+03  0.00000000000E+00 0.  1.
         21   -1    0    0  501  502 -0.00000000000E+00 -0.00000000000E+00 -0.10821856546E+03  0.10821856546E+03  0.00000000000E+00 0.  1.
      99925    2    1    2    0    0  0.18292964454E+02  0.68169553849E+02  0.14808780993E+03  0.31000404596E+03  0.26304141963E+03 0.  0.
         25    1    3    3    0    0  0.37379310438E+02  0.11351533014E+02  0.50664900843E+02  0.14050092679E+03  0.12509000000E+03 0.  0.
         25    1    1    2    0    0 -0.18292964454E+02 -0.68169553849E+02  0.16192599898E+03  0.21644689387E+03  0.12509000000E+03 0.  0.
         25    1    3    3    0    0 -0.19086345984E+02  0.56818020834E+02  0.97422909083E+02  0.16950311917E+03  0.12509000000E+03 0.  0.
<mgrwt>
<rscale>  2 0.42549034E+03</rscale>
<asrwt>0</asrwt>
<pdfrwt beam="1">  1       21 0.61504760E-01 0.42549034E+03</pdfrwt>
<pdfrwt beam="2">  1       21 0.15914495E-01 0.42549034E+03</pdfrwt>
<totfact> 0.80718069E+04</totfact>
</mgrwt>
</event>
<event>
 6    0  0.1539497E-004  0.3920016E+03  0.7546771E-02  0.1046585E+00
         21   -1    0    0  502  501  0.00000000000E+00  0.00000000000E+00  0.21422171766E+03  0.21422171766E+03  0.00000000000E+00 0. -1.
         21   -1    0    0  501  502 -0.00000000000E+00 -0.00000000000E+00 -0.17932968796E+03  0.17932968796E+03  0.00000000000E+00 0. -1.
      99925    2    1    2    0    0  0.25255505560E+02 -0.60135338417E+01  0.21061066565E+02  0.26504923913E+03  0.26293255312E+03 0.  0.
         25    1    3    3    0    0 -0.20055536155E+02  0.84015204860E+01 -0.10995500613E+02  0.12744104210E+03  0.12509000000E+03 0.  0.
         25    1    3    3    0    0  0.45311041714E+02 -0.14415054328E+02  0.32056567178E+02  0.13760819704E+03  0.12509000000E+03 0.  0.
         25    1    1    2    0    0 -0.25255505560E+02  0.60135338417E+01  0.13830963137E+02  0.12850216649E+03  0.12509000000E+03 0.  0.
<mgrwt>
<rscale>  2 0.39200160E+03</rscale>
<asrwt>0</asrwt>
<pdfrwt beam="1">  1       21 0.31503194E-01 0.39200160E+03</pdfrwt>
<pdfrwt beam="2">  1       21 0.26372013E-01 0.39200160E+03</pdfrwt>
<totfact> 0.12546949E+05</totfact>
</mgrwt>
</event>
<event>
 6    0  0.1539497E-004  0.4036910E+03  0.7546771E-02  0.1042509E+00
         21   -1    0    0  502  501  0.00000000000E+00  0.00000000000E+00  0.65326118111E+02  0.65326118111E+02  0.00000000000E+00 0. -1.
         21   -1    0    0  501  502 -0.00000000000E+00 -0.00000000000E+00 -0.62366494644E+03  0.62366494644E+03  0.00000000000E+00 0. -1.
      99925    2    1    2    0    0  0.10949725228E+02 -0.33897163067E+02 -0.30469913929E+03  0.40394806060E+03  0.26279945972E+03 0.  0.
         25    1    3    3    0    0 -0.81629213605E+01 -0.48030550581E+02 -0.12296821608E+03  0.18205015062E+03  0.12509000000E+03 0.  0.
         25    1    1    2    0    0 -0.10949725228E+02  0.33897163067E+02 -0.25363968904E+03  0.28504300395E+03  0.12509000000E+03 0.  0.
         25    1    3    3    0    0  0.19112646589E+02  0.14133387514E+02 -0.18173092321E+03  0.22189790998E+03  0.12509000000E+03 0.  0.
<mgrwt>
<rscale>  2 0.40369102E+03</rscale>
<asrwt>0</asrwt>
<pdfrwt beam="1">  1       21 0.96067821E-02 0.40369102E+03</pdfrwt>
<pdfrwt beam="2">  1       21 0.91715433E-01 0.40369102E+03</pdfrwt>
<totfact> 0.81907309E+04</totfact>
</mgrwt>
</event>
<event>
 6    0  0.1539497E-004  0.4815871E+03  0.7546771E-02  0.1018700E+00
         21   -1    0    0  502  501  0.00000000000E+00  0.00000000000E+00  0.51388931825E+03  0.51388931825E+03  0.00000000000E+00 0.  1.
         21   -1    0    0  501  502 -0.00000000000E+00 -0.00000000000E+00 -0.11282882643E+03  0.11282882643E+03  0.00000000000E+00 0.  1.
      99925    2    1    2    0    0  0.44454874918E+02 -0.11640798778E+03  0.17391666903E+03  0.33902233335E+03  0.26298684229E+03 0.  0.
         25    1    3    3    0    0  0.15946038464E+02 -0.10140506743E+03  0.94500041237E+02  0.18739004706E+03  0.12509000000E+03 0.  0.
         25    1    3    3    0    0  0.28508836454E+02 -0.15002920352E+02  0.79416627793E+02  0.15163228629E+03  0.12509000000E+03 0.  0.
         25    1    1    2    0    0 -0.44454874918E+02  0.11640798778E+03  0.22714382279E+03  0.28769581133E+03  0.12509000000E+03 0.  0.
<mgrwt>
<rscale>  2 0.48158708E+03</rscale>
<asrwt>0</asrwt>
<pdfrwt beam="1">  1       21 0.75571958E-01 0.48158708E+03</pdfrwt>
<pdfrwt beam="2">  1       21 0.16592475E-01 0.48158708E+03</pdfrwt>
<totfact> 0.46503670E+04</totfact>
</mgrwt>
</event>
<event>
 6    0  0.1827912E-004  0.4170334E+03  0.7546771E-02  0.1038036E+00
         21   -1    0    0  502  501  0.00000000000E+00  0.00000000000E+00  0.20014251989E+03  0.20014251989E+03  0.00000000000E+00 0.  1.
         21   -1    0    0  501  502 -0.00000000000E+00 -0.00000000000E+00 -0.21724123711E+03  0.21724123711E+03  0.00000000000E+00 0.  1.
      99925    2    1    2    0    0 -0.69953418271E+02 -0.16434048998E+02 -0.76282922721E+01  0.27281282028E+03  0.26306859443E+03 0.  0.
         25    1    1    2    0    0  0.69953418271E+02  0.16434048998E+02 -0.94704249418E+01  0.14457093672E+03  0.12509000000E+03 0.  0.
         25    1    3    3    0    0 -0.12433026006E+02  0.26478367963E+02 -0.55362413269E+01  0.12858398879E+03  0.12509000000E+03 0.  0.
         25    1    3    3    0    0 -0.57520392265E+02 -0.42912416961E+02 -0.20920509452E+01  0.14422883149E+03  0.12509000000E+03 0.  0.
<mgrwt>
<rscale>  2 0.41703337E+03</rscale>
<asrwt>0</asrwt>
<pdfrwt beam="1">  1       21 0.29432724E-01 0.41703337E+03</pdfrwt>
<pdfrwt beam="2">  1       21 0.31947241E-01 0.41703337E+03</pdfrwt>
<totfact> 0.97840707E+04</totfact>
</mgrwt>
</event>
<event>
 6    0  0.1539497E-004  0.4140432E+03  0.7546771E-02  0.1039023E+00
         21   -1    0    0  502  501  0.00000000000E+00  0.00000000000E+00  0.31503872420E+03  0.31503872420E+03  0.00000000000E+00 0. -1.
         21   -1    0    0  501  502 -0.00000000000E+00 -0.00000000000E+00 -0.13604021028E+03  0.13604021028E+03  0.00000000000E+00 0. -1.
      99925    2    1    2    0    0 -0.91389533635E+01 -0.63874759236E+02  0.92809139376E+02  0.28603463219E+03  0.26275229613E+03 0.  0.
         25    1    3    3    0    0  0.18008015021E+02 -0.62330742386E+02  0.32930381276E+02  0.14471118879E+03  0.12509000000E+03 0.  0.
         25    1    1    2    0    0  0.91389533635E+01  0.63874759236E+02  0.86189374547E+02  0.16504430230E+03  0.12509000000E+03 0.  0.
         25    1    3    3    0    0 -0.27146968384E+02 -0.15440168498E+01  0.59878758099E+02  0.14132344339E+03  0.12509000000E+03 0.  0.
<mgrwt>
<rscale>  2 0.41404316E+03</rscale>
<asrwt>0</asrwt>
<pdfrwt beam="1">  1       21 0.46329224E-01 0.41404316E+03</pdfrwt>
<pdfrwt beam="2">  1       21 0.20005913E-01 0.41404316E+03</pdfrwt>
<totfact> 0.96672739E+04</totfact>
</mgrwt>
</event>
<event>
 6    0  0.1539497E-004  0.5610866E+03  0.7546771E-02  0.9989599E-01
         21   -1    0    0  502  501  0.00000000000E+00  0.00000000000E+00  0.60487579168E+03  0.60487579168E+03  0.00000000000E+00 0. -1.
         21   -1    0    0  501  502 -0.00000000000E+00 -0.00000000000E+00 -0.13011684815E+03  0.13011684815E+03  0.00000000000E+00 0. -1.
      99925    2    1    2    0    0 -0.13707302781E+03  0.80227952182E+02  0.12630154666E+03  0.33213335323E+03  0.26293524750E+03 0.  0.
         25    1    1    2    0    0  0.13707302781E+03 -0.80227952182E+02  0.34845739687E+03  0.40285928660E+03  0.12509000000E+03 0.  0.
         25    1    3    3    0    0 -0.55257284002E+02  0.39744543965E+01  0.78182988636E+02  0.15757300383E+03  0.12509000000E+03 0.  0.
         25    1    3    3    0    0 -0.81815743806E+02  0.76253497786E+02  0.48118558023E+02  0.17456034941E+03  0.12509000000E+03 0.  0.
<mgrwt>
<rscale>  2 0.56108656E+03</rscale>
<asrwt>0</asrwt>
<pdfrwt beam="1">  1       21 0.88952321E-01 0.56108656E+03</pdfrwt>
<pdfrwt beam="2">  1       21 0.19134831E-01 0.56108656E+03</pdfrwt>
<totfact> 0.23902698E+04</totfact>
</mgrwt>
</event>
<event>
 6    0  0.1539497E-004  0.4859020E+03  0.7546771E-02  0.1017526E+00
         21   -1    0    0  502  501  0.00000000000E+00  0.00000000000E+00  0.35182181211E+03  0.35182181211E+03  0.00000000000E+00 0. -1.
         21   -1    0    0  501  502 -0.00000000000E+00 -0.00000000000E+00 -0.16777009923E+03  0.16777009923E+03  0.00000000000E+00 0. -1.
      99925    2    1    2    0    0  0.96641106474E+02  0.74248010158E+02  0.38175761845E+02  0.29204066071E+03  0.26263679910E+03 0.  0.
         25    1    3    3    0    0  0.83720175651E+02  0.17392159712E+02  0.20399849959E+02  0.15288955821E+03  0.12509000000E+03 0.  0.
         25    1    3    3    0    0  0.12920930823E+02  0.56855850446E+02  0.17775911885E+02  0.13915110250E+03  0.12509000000E+03 0.  0.
         25    1    1    2    0    0 -0.96641106474E+02 -0.74248010158E+02  0.14587595104E+03  0.22755125063E+03  0.12509000000E+03 0.  0.
<mgrwt>
<rscale>  2 0.48590197E+03</rscale>
<asrwt>0</asrwt>
<pdfrwt beam="1">  1       21 0.51738502E-01 0.48590197E+03</pdfrwt>
<pdfrwt beam="2">  1       21 0.24672074E-01 0.48590197E+03</pdfrwt>
<totfact> 0.50377326E+04</totfact>
</mgrwt>
</event>
<event>
 6    0  0.1539497E-004  0.4459106E+03  0.7546771E-02  0.1028949E+00
         21   -1    0    0  502  501  0.00000000000E+00  0.00000000000E+00  0.23890276941E+03  0.23890276941E+03  0.00000000000E+00 0.  1.
         21   -1    0    0  501  502 -0.00000000000E+00 -0.00000000000E+00 -0.20807240780E+03  0.20807240780E+03  0.00000000000E+00 0.  1.
      99925    2    1    2    0    0 -0.65226449241E+02 -0.38630196793E+02  0.91455128459E+02  0.28864118769E+03  0.26306446533E+03 0.  0.
         25    1    3    3    0    0 -0.71220259043E+02 -0.98007340389E+01  0.36151443617E+02  0.14873740169E+03  0.12509000000E+03 0.  0.
         25    1    1    2    0    0  0.65226449241E+02  0.38630196793E+02 -0.60624766846E+02  0.15833398953E+03  0.12509000000E+03 0.  0.
         25    1    3    3    0    0  0.59938098020E+01 -0.28829462754E+02  0.55303684843E+02  0.13990378600E+03  0.12509000000E+03 0.  0.
<mgrwt>
<rscale>  2 0.44591064E+03</rscale>
<asrwt>0</asrwt>
<pdfrwt beam="1">  1       21 0.35132760E-01 0.44591064E+03</pdfrwt>
<pdfrwt beam="2">  1       21 0.30598883E-01 0.44591064E+03</pdfrwt>
<totfact> 0.74387900E+04</totfact>
</mgrwt>
</event>
<event>
 6    0  0.1539497E-004  0.4024727E+03  0.7546771E-02  0.1042927E+00
         21   -1    0    0  502  501  0.00000000000E+00  0.00000000000E+00  0.69466389624E+02  0.69466389624E+02  0.00000000000E+00 0. -1.
         21   -1    0    0  501  502 -0.00000000000E+00 -0.00000000000E+00 -0.58295908044E+03  0.58295908044E+03  0.00000000000E+00 0. -1.
      99925    2    1    2    0    0  0.42972750089E+02 -0.19608299426E+02 -0.36871543150E+03  0.45534907480E+03  0.26298396878E+03 0.  0.
         25    1    3    3    0    0 -0.84460062884E+01  0.65009785373E+01 -0.13731541818E+03  0.18605544850E+03  0.12509000000E+03 0.  0.
         25    1    3    3    0    0  0.51418756378E+02 -0.26109277963E+02 -0.23140001332E+03  0.26929362630E+03  0.12509000000E+03 0.  0.
         25    1    1    2    0    0 -0.42972750089E+02  0.19608299426E+02 -0.14477725932E+03  0.19707639527E+03  0.12509000000E+03 0.  0.
<mgrwt>
<rscale>  2 0.40247267E+03</rscale>
<asrwt>0</asrwt>
<pdfrwt beam="1">  1       21 0.10215646E-01 0.40247267E+03</pdfrwt>
<pdfrwt beam="2">  1       21 0.85729276E-01 0.40247267E+03</pdfrwt>
<totfact> 0.86016033E+04</totfact>
</mgrwt>
</event>
<event>
 6    0  0.1539497E-004  0.4087435E+03  0.7546771E-02  0.1040793E+00
         21   -1    0    0  502  501  0.00000000000E+00  0.00000000000E+00  0.67539475778E+03  0.67539475778E+03  0.00000000000E+00 0. -1.
         21   -1    0    0  501  502 -0.00000000000E+00 -0.00000000000E+00 -0.61842074234E+02  0.61842074234E+02  0.00000000000E+00 0. -1.
      99925    2    1    2    0    0 -0.54933087980E+02  0.18345422911E+02  0.43557022649E+03  0.51211583829E+03  0.26303423907E+03 0.  0.
         25    1    1    2    0    0  0.54933087980E+02 -0.18345422911E+02  0.17798245705E+03  0.22512099373E+03  0.12509000000E+03 0.  0.
         25    1    3    3    0    0 -0.39550368656E+02  0.25245610321E+02  0.15611347575E+03  0.20547627092E+03  0.12509000000E+03 0.  0.
         25    1    3    3    0    0 -0.15382719324E+02 -0.69001874095E+01  0.27945675074E+03  0.30663956737E+03  0.12509000000E+03 0.  0.
<mgrwt>
<rscale>  2 0.40874350E+03</rscale>
<asrwt>0</asrwt>
<pdfrwt beam="1">  1       21 0.99322755E-01 0.40874350E+03</pdfrwt>
<pdfrwt beam="2">  1       21 0.90944230E-02 0.40874350E+03</pdfrwt>
<totfact> 0.74566180E+04</totfact>
</mgrwt>
</event>
<event>
 6    0  0.1539497E-004  0.4052815E+03  0.7546771E-02  0.1041966E+00
         21   -1    0    0  502  501  0.00000000000E+00  0.00000000000E+00  0.54160134245E+02  0.54160134245E+02  0.00000000000E+00 0.  1.
         21   -1    0    0  501  502 -0.00000000000E+00 -0.00000000000E+00 -0.75818276061E+03  0.75818276061E+03  0.00000000000E+00 0.  1.
      99925    2    1    2    0    0  0.31409086987E+02  0.72365019515E+00 -0.37694259981E+03  0.46075235704E+03  0.26309685773E+03 0.  0.
         25    1    3    3    0    0  0.37775758149E+02 -0.25316485268E+02 -0.15253760909E+03  0.20244298609E+03  0.12509000000E+03 0.  0.
         25    1    3    3    0    0 -0.63666711619E+01  0.26040135463E+02 -0.22440499073E+03  0.25830937095E+03  0.12509000000E+03 0.  0.
         25    1    1    2    0    0 -0.31409086987E+02 -0.72365019515E+00 -0.32708002655E+03  0.35159053782E+03  0.12509000000E+03 0.  0.
<mgrwt>
<rscale>  2 0.40528153E+03</rscale>
<asrwt>0</asrwt>
<pdfrwt beam="1">  1       21 0.79647267E-02 0.40528153E+03</pdfrwt>
<pdfrwt beam="2">  1       21 0.11149745E+00 0.40528153E+03</pdfrwt>
<totfact> 0.71115516E+04</totfact>
</mgrwt>
</event>
<event>
 6    0  0.1539497E-004  0.3964050E+03  0.7546771E-02  0.1045032E+00
         21   -1    0    0  502  501  0.00000000000E+00  0.00000000000E+00  0.26246158432E+03  0.26246158432E+03  0.00000000000E+00 0.  1.
         21   -1    0    0  501  502 -0.00000000000E+00 -0.00000000000E+00 -0.14967608979E+03  0.14967608979E+03  0.00000000000E+00 0.  1.
      99925    2    1    2    0    0 -0.32789240786E+02 -0.11832859248E+02  0.60067850851E+02  0.27198843607E+03  0.26297226428E+03 0.  0.
         25    1    3    3    0    0  0.19466702877E+02 -0.10534496883E+02  0.48302518491E+02  0.13590647350E+03  0.12509000000E+03 0.  0.
         25    1    1    2    0    0  0.32789240786E+02  0.11832859248E+02  0.52717643682E+02  0.14014923805E+03  0.12509000000E+03 0.  0.
         25    1    3    3    0    0 -0.52255943662E+02 -0.12983623649E+01  0.11765332359E+02  0.13608196258E+03  0.12509000000E+03 0.  0.
<mgrwt>
<rscale>  2 0.39640496E+03</rscale>
<asrwt>0</asrwt>
<pdfrwt beam="1">  1       21 0.38597292E-01 0.39640496E+03</pdfrwt>
<pdfrwt beam="2">  1       21 0.22011190E-01 0.39640496E+03</pdfrwt>
<totfact> 0.11802655E+05</totfact>
</mgrwt>
</event>
<event>
 6    0  0.1539497E-004  0.4717132E+03  0.7546771E-02  0.1021438E+00
         21   -1    0    0  502  501  0.00000000000E+00  0.00000000000E+00  0.45213455123E+02  0.45213455123E+02  0.00000000000E+00 0.  1.
         21   -1    0    0  501  502 -0.00000000000E+00 -0.00000000000E+00 -0.12303490492E+04  0.12303490492E+04  0.00000000000E+00 0.  1.
      99925    2    1    2    0    0 -0.12327227709E+03  0.24027875997E+02 -0.80491670716E+03  0.85605409774E+03  0.26299110186E+03 0.  0.
         25    1    3    3    0    0 -0.82062231267E+02  0.15667113990E+01 -0.32313915018E+03  0.35609420504E+03  0.12509000000E+03 0.  0.
         25    1    1    2    0    0  0.12327227709E+03 -0.24027875997E+02 -0.38021888687E+03  0.41950840654E+03  0.12509000000E+03 0.  0.
         25    1    3    3    0    0 -0.41210045828E+02  0.22461164598E+02 -0.48177755698E+03  0.49995989269E+03  0.12509000000E+03 0.  0.
<mgrwt>
<rscale>  2 0.47171318E+03</rscale>
<asrwt>0</asrwt>
<pdfrwt beam="1">  1       21 0.66490368E-02 0.47171318E+03</pdfrwt>
<pdfrwt beam="2">  1       21 0.18093370E+00 0.47171318E+03</pdfrwt>
<totfact> 0.26248661E+04</totfact>
</mgrwt>
</event>
<event>
 6    0  0.1539497E-004  0.3934228E+03  0.7546771E-02  0.1046081E+00
         21   -1    0    0  502  501  0.00000000000E+00  0.00000000000E+00  0.23415427336E+03  0.23415427336E+03  0.00000000000E+00 0.  1.
         21   -1    0    0  501  502 -0.00000000000E+00 -0.00000000000E+00 -0.16525591604E+03  0.16525591604E+03  0.00000000000E+00 0.  1.
      99925    2    1    2    0    0 -0.44546718155E+01 -0.28807132243E+02  0.54003780130E+02  0.27010801811E+03  0.26304417540E+03 0.  0.
         25    1    3    3    0    0 -0.10685585675E+01  0.16125519276E+02 -0.12243784093E+01  0.12613556751E+03  0.12509000000E+03 0.  0.
         25    1    3    3    0    0 -0.33861132480E+01 -0.44932651519E+02  0.55228158539E+02  0.14397245060E+03  0.12509000000E+03 0.  0.
         25    1    1    2    0    0  0.44546718155E+01  0.28807132243E+02  0.14894577187E+02  0.12930217128E+03  0.12509000000E+03 0.  0.
<mgrwt>
<rscale>  2 0.39342282E+03</rscale>
<asrwt>0</asrwt>
<pdfrwt beam="1">  1       21 0.34434452E-01 0.39342282E+03</pdfrwt>
<pdfrwt beam="2">  1       21 0.24302341E-01 0.39342282E+03</pdfrwt>
<totfact> 0.12302170E+05</totfact>
</mgrwt>
</event>
<event>
 6    0  0.1539497E-004  0.4526266E+03  0.7546771E-02  0.1026942E+00
         21   -1    0    0  502  501  0.00000000000E+00  0.00000000000E+00  0.17558616531E+03  0.17558616531E+03  0.00000000000E+00 0.  1.
         21   -1    0    0  501  502 -0.00000000000E+00 -0.00000000000E+00 -0.29169559735E+03  0.29169559735E+03  0.00000000000E+00 0.  1.
      99925    2    1    2    0    0  0.36224477159E+02  0.86356076925E+02 -0.11820642848E+02  0.27941679940E+03  0.26299132196E+03 0.  0.
         25    1    3    3    0    0  0.49005510430E+02  0.56545006352E+02 -0.30294328819E+02  0.14887623133E+03  0.12509000000E+03 0.  0.
         25    1    1    2    0    0 -0.36224477159E+02 -0.86356076925E+02 -0.10428878920E+03  0.18786496326E+03  0.12509000000E+03 0.  0.
         25    1    3    3    0    0 -0.12781033271E+02  0.29811070573E+02  0.18473685971E+02  0.13054056808E+03  0.12509000000E+03 0.  0.
<mgrwt>
<rscale>  2 0.45262661E+03</rscale>
<asrwt>0</asrwt>
<pdfrwt beam="1">  1       21 0.25821495E-01 0.45262661E+03</pdfrwt>
<pdfrwt beam="2">  1       21 0.42896411E-01 0.45262661E+03</pdfrwt>
<totfact> 0.68927056E+04</totfact>
</mgrwt>
</event>
<event>
 6    0  0.1539497E-004  0.4699416E+03  0.7546771E-02  0.1021937E+00
         21   -1    0    0  502  501  0.00000000000E+00  0.00000000000E+00  0.71695580492E+03  0.71695580492E+03  0.00000000000E+00 0. -1.
         21   -1    0    0  501  502 -0.00000000000E+00 -0.00000000000E+00 -0.77007907498E+02  0.77007907498E+02  0.00000000000E+00 0. -1.
      99925    2    1    2    0    0  0.26437111341E+02  0.10116521281E+03  0.51815511914E+03  0.59045865086E+03  0.26310334423E+03 0.  0.
         25    1    1    2    0    0 -0.26437111341E+02 -0.10116521281E+03  0.12179277828E+03  0.20350506155E+03  0.12509000000E+03 0.  0.
         25    1    3    3    0    0 -0.14094134192E+02  0.29302368073E+02  0.28996150119E+03  0.31746252325E+03  0.12509000000E+03 0.  0.
         25    1    3    3    0    0  0.40531245533E+02  0.71862844733E+02  0.22819361795E+03  0.27299612761E+03  0.12509000000E+03 0.  0.
<mgrwt>
<rscale>  2 0.46994156E+03</rscale>
<asrwt>0</asrwt>
<pdfrwt beam="1">  1       21 0.10543467E+00 0.46994156E+03</pdfrwt>
<pdfrwt beam="2">  1       21 0.11324693E-01 0.46994156E+03</pdfrwt>
<totfact> 0.42812706E+04</totfact>
</mgrwt>
</event>
<event>
 6    0  0.1539497E-004  0.4073511E+03  0.7546771E-02  0.1041264E+00
         21   -1    0    0  502  501  0.00000000000E+00  0.00000000000E+00  0.89751291851E+02  0.89751291851E+02  0.00000000000E+00 0. -1.
         21   -1    0    0  501  502 -0.00000000000E+00 -0.00000000000E+00 -0.46220767058E+03  0.46220767058E+03  0.00000000000E+00 0. -1.
      99925    2    1    2    0    0  0.27520168696E+02  0.37004569118E+02 -0.29183848614E+03  0.39615957050E+03  0.26390529643E+03 0.  0.
         25    1    3    3    0    0 -0.22148175327E+02 -0.34937536887E+01 -0.14746569022E+03  0.19466994087E+03  0.12509000000E+03 0.  0.
         25    1    1    2    0    0 -0.27520168696E+02 -0.37004569118E+02 -0.80617892590E+02  0.15579939193E+03  0.12509000000E+03 0.  0.
         25    1    3    3    0    0  0.49668344023E+02  0.40498322806E+02 -0.14437279592E+03  0.20148962964E+03  0.12509000000E+03 0.  0.
<mgrwt>
<rscale>  2 0.40735113E+03</rscale>
<asrwt>0</asrwt>
<pdfrwt beam="1">  1       21 0.13198720E-01 0.40735113E+03</pdfrwt>
<pdfrwt beam="2">  1       21 0.67971715E-01 0.40735113E+03</pdfrwt>
<totfact> 0.91725963E+04</totfact>
</mgrwt>
</event>
<event>
 6    0  0.1539497E-004  0.5447756E+03  0.7546771E-02  0.1002710E+00
         21   -1    0    0  502  501  0.00000000000E+00  0.00000000000E+00  0.48856006505E+03  0.48856006505E+03  0.00000000000E+00 0.  1.
         21   -1    0    0  501  502 -0.00000000000E+00 -0.00000000000E+00 -0.15186489227E+03  0.15186489227E+03  0.00000000000E+00 0.  1.
      99925    2    1    2    0    0  0.44158587211E+02  0.62424828928E+02  0.39670308141E+03  0.48201000447E+03  0.26289440753E+03 0.  0.
         25    1    1    2    0    0 -0.44158587211E+02 -0.62424828928E+02 -0.60007908633E+02  0.15841495286E+03  0.12509000000E+03 0.  0.
         25    1    3    3    0    0 -0.54392106414E+01  0.99765024121E+00  0.16533283211E+03  0.20739583842E+03  0.12509000000E+03 0.  0.
         25    1    3    3    0    0  0.49597797853E+02  0.61427178687E+02  0.23137024930E+03  0.27461416605E+03  0.12509000000E+03 0.  0.
<mgrwt>
<rscale>  2 0.54477563E+03</rscale>
<asrwt>0</asrwt>
<pdfrwt beam="1">  1       21 0.71847068E-01 0.54477563E+03</pdfrwt>
<pdfrwt beam="2">  1       21 0.22333073E-01 0.54477563E+03</pdfrwt>
<totfact> 0.29279142E+04</totfact>
</mgrwt>
</event>
<event>
 6    0  0.1539497E-004  0.4942428E+03  0.7546771E-02  0.1015293E+00
         21   -1    0    0  502  501  0.00000000000E+00  0.00000000000E+00  0.57372254223E+03  0.57372254223E+03  0.00000000000E+00 0.  1.
         21   -1    0    0  501  502 -0.00000000000E+00 -0.00000000000E+00 -0.10644339937E+03  0.10644339937E+03  0.00000000000E+00 0.  1.
      99925    2    1    2    0    0  0.41073763323E+02  0.23999441160E+02  0.93489255076E+02  0.28314023020E+03  0.26299262715E+03 0.  0.
         25    1    3    3    0    0 -0.17094184728E+02 -0.17887455115E-02  0.32232332382E+02  0.13030212011E+03  0.12509000000E+03 0.  0.
         25    1    1    2    0    0 -0.41073763323E+02 -0.23999441160E+02  0.37378988778E+03  0.39702571140E+03  0.12509000000E+03 0.  0.
         25    1    3    3    0    0  0.58167948051E+02  0.24001229906E+02  0.61256922694E+02  0.15283811009E+03  0.12509000000E+03 0.  0.
<mgrwt>
<rscale>  2 0.49424277E+03</rscale>
<asrwt>0</asrwt>
<pdfrwt beam="1">  1       21 0.84370960E-01 0.49424277E+03</pdfrwt>
<pdfrwt beam="2">  1       21 0.15653441E-01 0.49424277E+03</pdfrwt>
<totfact> 0.40079454E+04</totfact>
</mgrwt>
</event>
<event>
 6    0  0.1539497E-004  0.4711370E+03  0.7546771E-02  0.1021600E+00
         21   -1    0    0  502  501  0.00000000000E+00  0.00000000000E+00  0.32864429708E+03  0.32864429708E+03  0.00000000000E+00 0.  1.
         21   -1    0    0  501  502 -0.00000000000E+00 -0.00000000000E+00 -0.16885286095E+03  0.16885286095E+03  0.00000000000E+00 0.  1.
      99925    2    1    2    0    0  0.98871509596E+02 -0.70927183039E+02  0.58655519416E+02  0.29579881283E+03  0.26315437866E+03 0.  0.
         25    1    1    2    0    0 -0.98871509596E+02  0.70927183039E+02  0.10113591672E+03  0.20169834519E+03  0.12509000000E+03 0.  0.
         25    1    3    3    0    0  0.85277667848E+02 -0.32382237042E+02  0.87785246457E+01  0.15506598758E+03  0.12509000000E+03 0.  0.
         25    1    3    3    0    0  0.13593841748E+02 -0.38544945998E+02  0.49876994770E+02  0.14073282525E+03  0.12509000000E+03 0.  0.
<mgrwt>
<rscale>  2 0.47113705E+03</rscale>
<asrwt>0</asrwt>
<pdfrwt beam="1">  1       21 0.48330044E-01 0.47113705E+03</pdfrwt>
<pdfrwt beam="2">  1       21 0.24831303E-01 0.47113705E+03</pdfrwt>
<totfact> 0.57694217E+04</totfact>
</mgrwt>
</event>
<event>
 6    0  0.1539497E-004  0.4180617E+03  0.7546771E-02  0.1037699E+00
         21   -1    0    0  502  501  0.00000000000E+00  0.00000000000E+00  0.25381610023E+03  0.25381610023E+03  0.00000000000E+00 0.  1.
         21   -1    0    0  501  502 -0.00000000000E+00 -0.00000000000E+00 -0.17214788127E+03  0.17214788127E+03  0.00000000000E+00 0.  1.
      99925    2    1    2    0    0 -0.72417425285E+02 -0.83728747578E+01  0.61150002977E+02  0.27973507258E+03  0.26305512626E+03 0.  0.
         25    1    1    2    0    0  0.72417425285E+02  0.83728747578E+01  0.20518215982E+02  0.14622890892E+03  0.12509000000E+03 0.  0.
         25    1    3    3    0    0 -0.19188791195E+02 -0.32610095824E+02  0.54175459046E+02  0.14147125687E+03  0.12509000000E+03 0.  0.
         25    1    3    3    0    0 -0.53228634090E+02  0.24237221066E+02  0.69745439313E+01  0.13826381571E+03  0.12509000000E+03 0.  0.
<mgrwt>
<rscale>  2 0.41806174E+03</rscale>
<asrwt>0</asrwt>
<pdfrwt beam="1">  1       21 0.37325897E-01 0.41806174E+03</pdfrwt>
<pdfrwt beam="2">  1       21 0.25315865E-01 0.41806174E+03</pdfrwt>
<totfact> 0.96051300E+04</totfact>
</mgrwt>
</event>
<event>
 6    0  0.1539497E-004  0.4099596E+03  0.7546771E-02  0.1040385E+00
         21   -1    0    0  502  501  0.00000000000E+00  0.00000000000E+00  0.36194242146E+02  0.36194242146E+02  0.00000000000E+00 0.  1.
         21   -1    0    0  501  502 -0.00000000000E+00 -0.00000000000E+00 -0.11608672614E+04  0.11608672614E+04  0.00000000000E+00 0.  1.
      99925    2    1    2    0    0  0.44220719281E+01 -0.43022344118E+01 -0.92210848867E+03  0.95890617379E+03  0.26301886114E+03 0.  0.
         25    1    3    3    0    0 -0.12997530257E+02 -0.39530269078E+02 -0.47812382179E+03  0.49596519538E+03  0.12509000000E+03 0.  0.
         25    1    3    3    0    0  0.17419602185E+02  0.35228034666E+02 -0.44398466687E+03  0.46294097840E+03  0.12509000000E+03 0.  0.
         25    1    1    2    0    0 -0.44220719281E+01  0.43022344118E+01 -0.20256453059E+03  0.23815532977E+03  0.12509000000E+03 0.  0.
<mgrwt>
<rscale>  2 0.40995956E+03</rscale>
<asrwt>0</asrwt>
<pdfrwt beam="1">  1       21 0.53226824E-02 0.40995956E+03</pdfrwt>
<pdfrwt beam="2">  1       21 0.17071578E+00 0.40995956E+03</pdfrwt>
<totfact> 0.46560371E+04</totfact>
</mgrwt>
</event>
<event>
 6    0  0.1539497E-004  0.4060606E+03  0.7546771E-02  0.1041701E+00
         21   -1    0    0  502  501  0.00000000000E+00  0.00000000000E+00  0.27523705781E+03  0.27523705781E+03  0.00000000000E+00 0. -1.
         21   -1    0    0  501  502 -0.00000000000E+00 -0.00000000000E+00 -0.14976654822E+03  0.14976654822E+03  0.00000000000E+00 0. -1.
      99925    2    1    2    0    0  0.78300529439E+01  0.37223277497E+02  0.12588329442E+03  0.29425743741E+03  0.26323744707E+03 0.  0.
         25    1    1    2    0    0 -0.78300529439E+01 -0.37223277497E+02 -0.41278482716E+00  0.13074616862E+03  0.12509000000E+03 0.  0.
         25    1    3    3    0    0 -0.24882393174E+02  0.10944393866E+02  0.30905115258E+02  0.13168730955E+03  0.12509000000E+03 0.  0.
         25    1    3    3    0    0  0.32712446118E+02  0.26278883631E+02  0.94978179165E+02  0.16257012786E+03  0.12509000000E+03 0.  0.
<mgrwt>
<rscale>  2 0.40606061E+03</rscale>
<asrwt>0</asrwt>
<pdfrwt beam="1">  1       21 0.40476038E-01 0.40606061E+03</pdfrwt>
<pdfrwt beam="2">  1       21 0.22024492E-01 0.40606061E+03</pdfrwt>
<totfact> 0.10673110E+05</totfact>
</mgrwt>
</event>
<event>
 6    0  0.1539497E-004  0.4061500E+03  0.7546771E-02  0.1041671E+00
         21   -1    0    0  502  501  0.00000000000E+00  0.00000000000E+00  0.35723848320E+02  0.35723848320E+02  0.00000000000E+00 0. -1.
         21   -1    0    0  501  502 -0.00000000000E+00 -0.00000000000E+00 -0.11543954050E+04  0.11543954050E+04  0.00000000000E+00 0. -1.
      99925    2    1    2    0    0  0.13367043382E+02  0.54556709610E+02 -0.75546444065E+03  0.80188990146E+03  0.26295585287E+03 0.  0.
         25    1    3    3    0    0  0.12551947505E+02 -0.11359554930E+02 -0.39524696294E+03  0.41491476316E+03  0.12509000000E+03 0.  0.
         25    1    3    3    0    0  0.81509587677E+00  0.65916264541E+02 -0.36021747771E+03  0.38697513829E+03  0.12509000000E+03 0.  0.
         25    1    1    2    0    0 -0.13367043382E+02 -0.54556709610E+02 -0.36320711600E+03  0.38822935183E+03  0.12509000000E+03 0.  0.
<mgrwt>
<rscale>  2 0.40614995E+03</rscale>
<asrwt>0</asrwt>
<pdfrwt beam="1">  1       21 0.52535074E-02 0.40614995E+03</pdfrwt>
<pdfrwt beam="2">  1       21 0.16976402E+00 0.40614995E+03</pdfrwt>
<totfact> 0.48441044E+04</totfact>
</mgrwt>
</event>
<event>
 6    0  0.1539497E-004  0.4622010E+03  0.7546771E-02  0.1024145E+00
         21   -1    0    0  502  501  0.00000000000E+00  0.00000000000E+00  0.68508932920E+02  0.68508932920E+02  0.00000000000E+00 0.  1.
         21   -1    0    0  501  502 -0.00000000000E+00 -0.00000000000E+00 -0.77956904454E+03  0.77956904454E+03  0.00000000000E+00 0.  1.
      99925    2    1    2    0    0  0.39104275791E+02  0.85621571819E+02 -0.30851841989E+03  0.41616650548E+03  0.26296529605E+03 0.  0.
         25    1    3    3    0    0 -0.90435483957E+00  0.75994279475E+02 -0.14267865152E+03  0.20440316551E+03  0.12509000000E+03 0.  0.
         25    1    1    2    0    0 -0.39104275791E+02 -0.85621571819E+02 -0.40254169173E+03  0.43191147197E+03  0.12509000000E+03 0.  0.
         25    1    3    3    0    0  0.40008630630E+02  0.96272923441E+01 -0.16583976837E+03  0.21176333997E+03  0.12509000000E+03 0.  0.
<mgrwt>
<rscale>  2 0.46220101E+03</rscale>
<asrwt>0</asrwt>
<pdfrwt beam="1">  1       21 0.10074843E-01 0.46220101E+03</pdfrwt>
<pdfrwt beam="2">  1       21 0.11464251E+00 0.46220101E+03</pdfrwt>
<totfact> 0.43041989E+04</totfact>
</mgrwt>
</event>
<event>
 6    0  0.1539497E-004  0.3955038E+03  0.7546771E-02  0.1045348E+00
         21   -1    0    0  502  501  0.00000000000E+00  0.00000000000E+00  0.99255303735E+03  0.99255303735E+03  0.00000000000E+00 0.  1.
         21   -1    0    0  501  502 -0.00000000000E+00 -0.00000000000E+00 -0.39399221997E+02  0.39399221997E+02  0.00000000000E+00 0.  1.
      99925    2    1    2    0    0 -0.13453229019E+01 -0.35663290018E+02  0.63280521642E+03  0.68620030622E+03  0.26297288489E+03 0.  0.
         25    1    3    3    0    0  0.10292498597E+02 -0.84748920722E+01  0.41122544437E+03  0.43003678159E+03  0.12509000000E+03 0.  0.
         25    1    3    3    0    0 -0.11637821499E+02 -0.27188397946E+02  0.22157977205E+03  0.25616352464E+03  0.12509000000E+03 0.  0.
         25    1    1    2    0    0  0.13453229019E+01  0.35663290018E+02  0.32034859894E+03  0.34575195312E+03  0.12509000000E+03 0.  0.
<mgrwt>
<rscale>  2 0.39550382E+03</rscale>
<asrwt>0</asrwt>
<pdfrwt beam="1">  1       21 0.14596367E+00 0.39550382E+03</pdfrwt>
<pdfrwt beam="2">  1       21 0.57940039E-02 0.39550382E+03</pdfrwt>
<totfact> 0.62193936E+04</totfact>
</mgrwt>
</event>
<event>
 6    0  0.1539497E-004  0.4689982E+03  0.7546771E-02  0.1022203E+00
         21   -1    0    0  502  501  0.00000000000E+00  0.00000000000E+00  0.23062259674E+03  0.23062259674E+03  0.00000000000E+00 0.  1.
         21   -1    0    0  501  502 -0.00000000000E+00 -0.00000000000E+00 -0.23844075144E+03  0.23844075144E+03  0.00000000000E+00 0.  1.
      99925    2    1    2    0    0 -0.51400568814E+02  0.60705074949E+02 -0.10236609754E+03  0.29323972578E+03  0.26302774426E+03 0.  0.
         25    1    1    2    0    0  0.51400568814E+02 -0.60705074949E+02  0.94547942839E+02  0.17582362240E+03  0.12509000000E+03 0.  0.
         25    1    3    3    0    0 -0.33323795620E+02  0.18359217133E+02 -0.91333465724E+02  0.15948932964E+03  0.12509000000E+03 0.  0.
         25    1    3    3    0    0 -0.18076773194E+02  0.42345857816E+02 -0.11032631817E+02  0.13375039614E+03  0.12509000000E+03 0.  0.
<mgrwt>
<rscale>  2 0.46899819E+03</rscale>
<asrwt>0</asrwt>
<pdfrwt beam="1">  1       21 0.33915088E-01 0.46899819E+03</pdfrwt>
<pdfrwt beam="2">  1       21 0.35064816E-01 0.46899819E+03</pdfrwt>
<totfact> 0.60484421E+04</totfact>
</mgrwt>
</event>
<event>
 6    0  0.1539497E-004  0.4479838E+03  0.7546771E-02  0.1028325E+00
         21   -1    0    0  502  501  0.00000000000E+00  0.00000000000E+00  0.25025498254E+03  0.25025498254E+03  0.00000000000E+00 0. -1.
         21   -1    0    0  501  502 -0.00000000000E+00 -0.00000000000E+00 -0.20048502535E+03  0.20048502535E+03  0.00000000000E+00 0. -1.
      99925    2    1    2    0    0  0.28156410371E+02  0.82819042971E+02  0.92740934568E+02  0.29216576559E+03  0.26288434019E+03 0.  0.
         25    1    3    3    0    0 -0.14480307659E+02  0.44682925580E+02  0.15770704006E+02  0.13454540629E+03  0.12509000000E+03 0.  0.
         25    1    1    2    0    0 -0.28156410371E+02 -0.82819042971E+02 -0.42970977385E+02  0.15857424230E+03  0.12509000000E+03 0.  0.
         25    1    3    3    0    0  0.42636718030E+02  0.38136117391E+02  0.76970230562E+02  0.15762035930E+03  0.12509000000E+03 0.  0.
<mgrwt>
<rscale>  2 0.44798382E+03</rscale>
<asrwt>0</asrwt>
<pdfrwt beam="1">  1       21 0.36802204E-01 0.44798382E+03</pdfrwt>
<pdfrwt beam="2">  1       21 0.29483092E-01 0.44798382E+03</pdfrwt>
<totfact> 0.72852489E+04</totfact>
</mgrwt>
</event>
<event>
 6    0  0.1539497E-004  0.4493167E+03  0.7546771E-02  0.1027926E+00
         21   -1    0    0  502  501  0.00000000000E+00  0.00000000000E+00  0.16456913402E+04  0.16456913402E+04  0.00000000000E+00 0.  1.
         21   -1    0    0  501  502 -0.00000000000E+00 -0.00000000000E+00 -0.30668792433E+02  0.30668792433E+02  0.00000000000E+00 0.  1.
      99925    2    1    2    0    0 -0.73466648934E+01 -0.10736520824E+03  0.10419207638E+04  0.10799756725E+04  0.26299679406E+03 0.  0.
         25    1    3    3    0    0 -0.22856182390E+02 -0.15678198618E+02  0.45143529083E+03  0.46926489416E+03  0.12509000000E+03 0.  0.
         25    1    3    3    0    0  0.15509517497E+02 -0.91687009619E+02  0.59048547298E+03  0.61071077832E+03  0.12509000000E+03 0.  0.
         25    1    1    2    0    0  0.73466648934E+01  0.10736520824E+03  0.57310178393E+03  0.59638446011E+03  0.12509000000E+03 0.  0.
<mgrwt>
<rscale>  2 0.44931666E+03</rscale>
<asrwt>0</asrwt>
<pdfrwt beam="1">  1       21 0.24201337E+00 0.44931666E+03</pdfrwt>
<pdfrwt beam="2">  1       21 0.45101176E-02 0.44931666E+03</pdfrwt>
<totfact> 0.20654533E+04</totfact>
</mgrwt>
</event>
<event>
 6    0  0.1539497E-004  0.4760204E+03  0.7546771E-02  0.1020235E+00
         21   -1    0    0  502  501  0.00000000000E+00  0.00000000000E+00  0.89195861851E+02  0.89195861851E+02  0.00000000000E+00 0. -1.
         21   -1    0    0  501  502 -0.00000000000E+00 -0.00000000000E+00 -0.63510622531E+03  0.63510622531E+03  0.00000000000E+00 0. -1.
      99925    2    1    2    0    0  0.54404971799E+02 -0.10718231556E+03 -0.25420547543E+03  0.38490968960E+03  0.26284424225E+03 0.  0.
         25    1    3    3    0    0  0.94306071400E+01 -0.69657232588E+02 -0.17270079216E+03  0.22453092909E+03  0.12509000000E+03 0.  0.
         25    1    1    2    0    0 -0.54404971799E+02  0.10718231556E+03 -0.29170488803E+03  0.33939239756E+03  0.12509000000E+03 0.  0.
         25    1    3    3    0    0  0.44974364659E+02 -0.37525082967E+02 -0.81504683267E+02  0.16037876051E+03  0.12509000000E+03 0.  0.
<mgrwt>
<rscale>  2 0.47602037E+03</rscale>
<asrwt>0</asrwt>
<pdfrwt beam="1">  1       21 0.13117038E-01 0.47602037E+03</pdfrwt>
<pdfrwt beam="2">  1       21 0.93397976E-01 0.47602037E+03</pdfrwt>
<totfact> 0.43884208E+04</totfact>
</mgrwt>
</event>
<event>
 6    0  0.1539497E-004  0.4750229E+03  0.7546771E-02  0.1020512E+00
         21   -1    0    0  502  501  0.00000000000E+00  0.00000000000E+00  0.29650301960E+03  0.29650301960E+03  0.00000000000E+00 0. -1.
         21   -1    0    0  501  502 -0.00000000000E+00 -0.00000000000E+00 -0.19025673189E+03  0.19025673189E+03  0.00000000000E+00 0. -1.
      99925    2    1    2    0    0 -0.10296767253E+03 -0.67355492917E+02  0.11203030440E+03  0.31120330200E+03  0.26297833001E+03 0.  0.
         25    1    3    3    0    0 -0.85997623300E+02 -0.60273298317E+02  0.53395109348E+02  0.17183424428E+03  0.12509000000E+03 0.  0.
         25    1    1    2    0    0  0.10296767253E+03  0.67355492917E+02 -0.57840166941E+01  0.17555644950E+03  0.12509000000E+03 0.  0.
         25    1    3    3    0    0 -0.16970049229E+02 -0.70821945992E+01  0.58635195055E+02  0.13936905772E+03  0.12509000000E+03 0.  0.
<mgrwt>
<rscale>  2 0.47502293E+03</rscale>
<asrwt>0</asrwt>
<pdfrwt beam="1">  1       21 0.43603385E-01 0.47502293E+03</pdfrwt>
<pdfrwt beam="2">  1       21 0.27978931E-01 0.47502293E+03</pdfrwt>
<totfact> 0.56656178E+04</totfact>
</mgrwt>
</event>
<event>
 6    0  0.1539497E-004  0.3895860E+03  0.7546771E-02  0.1047447E+00
         21   -1    0    0  502  501  0.00000000000E+00  0.00000000000E+00  0.25554788141E+03  0.25554788141E+03  0.00000000000E+00 0.  1.
         21   -1    0    0  501  502 -0.00000000000E+00 -0.00000000000E+00 -0.14848219423E+03  0.14848219423E+03  0.00000000000E+00 0.  1.
      99925    2    1    2    0    0 -0.39031934709E+00 -0.12912383300E+02  0.81766201545E+02  0.27575515968E+03  0.26303671680E+03 0.  0.
         25    1    1    2    0    0  0.39031934709E+00  0.12912383300E+02  0.25299485630E+02  0.12827491596E+03  0.12509000000E+03 0.  0.
         25    1    3    3    0    0 -0.31684239658E+02  0.13992317714E+02  0.24338490165E+02  0.13205887400E+03  0.12509000000E+03 0.  0.
         25    1    3    3    0    0  0.31293920311E+02 -0.26904701014E+02  0.57427711380E+02  0.14369628568E+03  0.12509000000E+03 0.  0.
<mgrwt>
<rscale>  2 0.38958599E+03</rscale>
<asrwt>0</asrwt>
<pdfrwt beam="1">  1       21 0.37580571E-01 0.38958599E+03</pdfrwt>
<pdfrwt beam="2">  1       21 0.21835617E-01 0.38958599E+03</pdfrwt>
<totfact> 0.12672894E+05</totfact>
</mgrwt>
</event>
<event>
 6    0  0.1539497E-004  0.4635176E+03  0.7546771E-02  0.1023766E+00
         21   -1    0    0  502  501  0.00000000000E+00  0.00000000000E+00  0.28974296126E+03  0.28974296126E+03  0.00000000000E+00 0. -1.
         21   -1    0    0  501  502 -0.00000000000E+00 -0.00000000000E+00 -0.18537856847E+03  0.18537856847E+03  0.00000000000E+00 0. -1.
      99925    2    1    2    0    0  0.32535482409E+02  0.11599552654E+03  0.54274226015E+02  0.29437293997E+03  0.26305173709E+03 0.  0.
         25    1    3    3    0    0 -0.13153479446E+01  0.25877516428E+02  0.47803303343E+02  0.13639662718E+03  0.12509000000E+03 0.  0.
         25    1    1    2    0    0 -0.32535482409E+02 -0.11599552654E+03  0.50090166774E+02  0.18074858976E+03  0.12509000000E+03 0.  0.
         25    1    3    3    0    0  0.33850830354E+02  0.90118010114E+02  0.64709226722E+01  0.15797631279E+03  0.12509000000E+03 0.  0.
<mgrwt>
<rscale>  2 0.46351757E+03</rscale>
<asrwt>0</asrwt>
<pdfrwt beam="1">  1       21 0.42609259E-01 0.46351757E+03</pdfrwt>
<pdfrwt beam="2">  1       21 0.27261554E-01 0.46351757E+03</pdfrwt>
<totfact> 0.62710977E+04</totfact>
</mgrwt>
</event>
<event>
 6    0  0.1539497E-004  0.3963180E+03  0.7546771E-02  0.1045062E+00
         21   -1    0    0  502  501  0.00000000000E+00  0.00000000000E+00  0.25597944965E+03  0.25597944965E+03  0.00000000000E+00 0. -1.
         21   -1    0    0  501  502 -0.00000000000E+00 -0.00000000000E+00 -0.15339896524E+03  0.15339896524E+03  0.00000000000E+00 0. -1.
      99925    2    1    2    0    0  0.25514005021E+01 -0.37902669442E+01  0.29885382584E+02  0.26462703597E+03  0.26289438241E+03 0.  0.
         25    1    3    3    0    0 -0.13110422516E+02 -0.36412930772E+02 -0.36424116360E+00  0.13094054176E+03  0.12509000000E+03 0.  0.
         25    1    3    3    0    0  0.15661823018E+02  0.32622663828E+02  0.30249623748E+02  0.13368649420E+03  0.12509000000E+03 0.  0.
         25    1    1    2    0    0 -0.25514005021E+01  0.37902669442E+01  0.72695101827E+02  0.14475137891E+03  0.12509000000E+03 0.  0.
<mgrwt>
<rscale>  2 0.39631797E+03</rscale>
<asrwt>0</asrwt>
<pdfrwt beam="1">  1       21 0.37644037E-01 0.39631797E+03</pdfrwt>
<pdfrwt beam="2">  1       21 0.22558671E-01 0.39631797E+03</pdfrwt>
<totfact> 0.11848851E+05</totfact>
</mgrwt>
</event>
<event>
 6    0  0.1539497E-004  0.3937851E+03  0.7546771E-02  0.1045953E+00
         21   -1    0    0  502  501  0.00000000000E+00  0.00000000000E+00  0.44242939395E+03  0.44242939395E+03  0.00000000000E+00 0.  1.
         21   -1    0    0  501  502 -0.00000000000E+00 -0.00000000000E+00 -0.87622300422E+02  0.87622300422E+02  0.00000000000E+00 0.  1.
      99925    2    1    2    0    0  0.12509112293E+02 -0.86930616560E+01  0.27359111922E+03  0.38013308381E+03  0.26347108699E+03 0.  0.
         25    1    1    2    0    0 -0.12509112293E+02  0.86930616560E+01  0.81215974309E+02  0.14991861057E+03  0.12509000000E+03 0.  0.
         25    1    3    3    0    0 -0.28932249955E+02  0.16607735692E+02  0.14288620380E+03  0.19281303718E+03  0.12509000000E+03 0.  0.
         25    1    3    3    0    0  0.41441362248E+02 -0.25300797348E+02  0.13070491542E+03  0.18732004663E+03  0.12509000000E+03 0.  0.
<mgrwt>
<rscale>  2 0.39378513E+03</rscale>
<asrwt>0</asrwt>
<pdfrwt beam="1">  1       21 0.65063145E-01 0.39378513E+03</pdfrwt>
<pdfrwt beam="2">  1       21 0.12885633E-01 0.39378513E+03</pdfrwt>
<totfact> 0.10594753E+05</totfact>
</mgrwt>
</event>
<event>
 6    0  0.1539497E-004  0.4246624E+03  0.7546771E-02  0.1035559E+00
         21   -1    0    0  502  501  0.00000000000E+00  0.00000000000E+00  0.44636730815E+03  0.44636730815E+03  0.00000000000E+00 0. -1.
         21   -1    0    0  501  502 -0.00000000000E+00 -0.00000000000E+00 -0.10100323899E+03  0.10100323899E+03  0.00000000000E+00 0. -1.
      99925    2    1    2    0    0  0.57443509031E+02  0.51607274859E+02  0.25752732570E+03  0.37612257153E+03  0.26303003209E+03 0.  0.
         25    1    1    2    0    0 -0.57443509031E+02 -0.51607274859E+02  0.87836743464E+02  0.17124797561E+03  0.12509000000E+03 0.  0.
         25    1    3    3    0    0  0.64615191286E+01 -0.59140076305E+01  0.96636504853E+02  0.15831250388E+03  0.12509000000E+03 0.  0.
         25    1    3    3    0    0  0.50981989903E+02  0.57521282489E+02  0.16089082085E+03  0.21781006764E+03  0.12509000000E+03 0.  0.
<mgrwt>
<rscale>  2 0.42466243E+03</rscale>
<asrwt>0</asrwt>
<pdfrwt beam="1">  1       21 0.65642251E-01 0.42466243E+03</pdfrwt>
<pdfrwt beam="2">  1       21 0.14853418E-01 0.42466243E+03</pdfrwt>
<totfact> 0.79465741E+04</totfact>
</mgrwt>
</event>
<event>
 6    0  0.1539497E-004  0.4592617E+03  0.7546771E-02  0.1024996E+00
         21   -1    0    0  502  501  0.00000000000E+00  0.00000000000E+00  0.86559423154E+02  0.86559423154E+02  0.00000000000E+00 0.  1.
         21   -1    0    0  501  502 -0.00000000000E+00 -0.00000000000E+00 -0.60918064128E+03  0.60918064128E+03  0.00000000000E+00 0.  1.
      99925    2    1    2    0    0 -0.21724490458E+02  0.44169733490E+02 -0.16672171632E+03  0.31529968497E+03  0.26304912432E+03 0.  0.
         25    1    1    2    0    0  0.21724490458E+02 -0.44169733490E+02 -0.35589950181E+03  0.38044037947E+03  0.12509000000E+03 0.  0.
         25    1    3    3    0    0 -0.47316568730E+02  0.28319660470E+02 -0.10622913076E+03  0.17312711275E+03  0.12509000000E+03 0.  0.
         25    1    3    3    0    0  0.25592078272E+02  0.15850073019E+02 -0.60492585561E+02  0.14217257222E+03  0.12509000000E+03 0.  0.
<mgrwt>
<rscale>  2 0.45926169E+03</rscale>
<asrwt>0</asrwt>
<pdfrwt beam="1">  1       21 0.12729327E-01 0.45926169E+03</pdfrwt>
<pdfrwt beam="2">  1       21 0.89585390E-01 0.45926169E+03</pdfrwt>
<totfact> 0.51389308E+04</totfact>
</mgrwt>
</event>
<event>
 6    0  0.1539497E-004  0.4565312E+03  0.7546771E-02  0.1025792E+00
         21   -1    0    0  502  501  0.00000000000E+00  0.00000000000E+00  0.39668936356E+02  0.39668936356E+02  0.00000000000E+00 0. -1.
         21   -1    0    0  501  502 -0.00000000000E+00 -0.00000000000E+00 -0.13135007963E+04  0.13135007963E+04  0.00000000000E+00 0. -1.
      99925    2    1    2    0    0  0.44142180831E+02 -0.10394253870E+03 -0.74256128171E+03  0.79581121350E+03  0.26299362531E+03 0.  0.
         25    1    1    2    0    0 -0.44142180831E+02  0.10394253870E+03 -0.53127057819E+03  0.55735851911E+03  0.12509000000E+03 0.  0.
         25    1    3    3    0    0  0.61195537186E+02 -0.67020165667E+02 -0.38901215707E+03  0.41858638634E+03  0.12509000000E+03 0.  0.
         25    1    3    3    0    0 -0.17053356355E+02 -0.36922373028E+02 -0.35354912464E+03  0.37722482716E+03  0.12509000000E+03 0.  0.
<mgrwt>
<rscale>  2 0.45653118E+03</rscale>
<asrwt>0</asrwt>
<pdfrwt beam="1">  1       21 0.58336680E-02 0.45653118E+03</pdfrwt>
<pdfrwt beam="2">  1       21 0.19316185E+00 0.45653118E+03</pdfrwt>
<totfact> 0.27280959E+04</totfact>
</mgrwt>
</event>
<event>
 6    0  0.1539497E-004  0.4225991E+03  0.7546771E-02  0.1036224E+00
         21   -1    0    0  502  501  0.00000000000E+00  0.00000000000E+00  0.31120414744E+03  0.31120414744E+03  0.00000000000E+00 0. -1.
         21   -1    0    0  501  502 -0.00000000000E+00 -0.00000000000E+00 -0.14346692342E+03  0.14346692342E+03  0.00000000000E+00 0. -1.
      99925    2    1    2    0    0 -0.62241288263E+02  0.29891062736E+02  0.15034303396E+03  0.31073525341E+03  0.26303215822E+03 0.  0.
         25    1    3    3    0    0 -0.18915877759E+02 -0.24413856364E+02  0.72654442387E+02  0.14791897415E+03  0.12509000000E+03 0.  0.
         25    1    1    2    0    0  0.62241288263E+02 -0.29891062736E+02  0.17394190057E+02  0.14393581745E+03  0.12509000000E+03 0.  0.
         25    1    3    3    0    0 -0.43325410504E+02  0.54304919100E+02  0.77688591569E+02  0.16281627926E+03  0.12509000000E+03 0.  0.
<mgrwt>
<rscale>  2 0.42259911E+03</rscale>
<asrwt>0</asrwt>
<pdfrwt beam="1">  1       21 0.45765316E-01 0.42259911E+03</pdfrwt>
<pdfrwt beam="2">  1       21 0.21098077E-01 0.42259911E+03</pdfrwt>
<totfact> 0.89480119E+04</totfact>
</mgrwt>
</event>
<event>
 6    0  0.1539497E-004  0.4441811E+03  0.7546771E-02  0.1029472E+00
         21   -1    0    0  502  501  0.00000000000E+00  0.00000000000E+00  0.31150099803E+03  0.31150099803E+03  0.00000000000E+00 0.  1.
         21   -1    0    0  501  502 -0.00000000000E+00 -0.00000000000E+00 -0.15834368842E+03  0.15834368842E+03  0.00000000000E+00 0.  1.
      99925    2    1    2    0    0  0.77002217926E+02  0.32192107485E+01  0.25692539839E+02  0.27533381140E+03  0.26307583738E+03 0.  0.
         25    1    3    3    0    0  0.68429213188E+02 -0.26663509772E+02  0.85957347653E+01  0.14530965118E+03  0.12509000000E+03 0.  0.
         25    1    1    2    0    0 -0.77002217926E+02 -0.32192107485E+01  0.12746476977E+03  0.19451087506E+03  0.12509000000E+03 0.  0.
         25    1    3    3    0    0  0.85730047374E+01  0.29882720520E+02  0.17096805073E+02  0.13002416022E+03  0.12509000000E+03 0.  0.
<mgrwt>
<rscale>  2 0.44418112E+03</rscale>
<asrwt>0</asrwt>
<pdfrwt beam="1">  1       21 0.45808970E-01 0.44418112E+03</pdfrwt>
<pdfrwt beam="2">  1       21 0.23285837E-01 0.44418112E+03</pdfrwt>
<totfact> 0.73563279E+04</totfact>
</mgrwt>
</event>
<event>
 6    0  0.1539497E-004  0.4248922E+03  0.7546771E-02  0.1035486E+00
         21   -1    0    0  502  501  0.00000000000E+00  0.00000000000E+00  0.23227871294E+02  0.23227871294E+02  0.00000000000E+00 0. -1.
         21   -1    0    0  501  502 -0.00000000000E+00 -0.00000000000E+00 -0.19430689193E+04  0.19430689193E+04  0.00000000000E+00 0. -1.
      99925    2    1    2    0    0 -0.18110008428E+02  0.15717513362E+02 -0.88230824578E+03  0.92097538718E+03  0.26296921987E+03 0.  0.
         25    1    3    3    0    0  0.58541254248E+00  0.48101780238E+01 -0.57517096794E+03  0.58863624675E+03  0.12509000000E+03 0.  0.
         25    1    3    3    0    0 -0.18695420970E+02  0.10907335338E+02 -0.30713727784E+03  0.33233914044E+03  0.12509000000E+03 0.  0.
         25    1    1    2    0    0  0.18110008428E+02 -0.15717513362E+02 -0.10375328022E+04  0.10453214034E+04  0.12509000000E+03 0.  0.
<mgrwt>
<rscale>  2 0.42489224E+03</rscale>
<asrwt>0</asrwt>
<pdfrwt beam="1">  1       21 0.34158645E-02 0.42489224E+03</pdfrwt>
<pdfrwt beam="2">  1       21 0.28574534E+00 0.42489224E+03</pdfrwt>
<totfact> 0.18154639E+04</totfact>
</mgrwt>
</event>
<event>
 6    0  0.1539497E-004  0.4117498E+03  0.7546771E-02  0.1039785E+00
         21   -1    0    0  502  501  0.00000000000E+00  0.00000000000E+00  0.25497697244E+03  0.25497697244E+03  0.00000000000E+00 0. -1.
         21   -1    0    0  501  502 -0.00000000000E+00 -0.00000000000E+00 -0.16622862959E+03  0.16622862959E+03  0.00000000000E+00 0. -1.
      99925    2    1    2    0    0  0.25044567779E+02 -0.39947137367E+02  0.13477798573E+02  0.26779058616E+03  0.26326249795E+03 0.  0.
         25    1    3    3    0    0  0.37747941203E+02  0.69400448804E+01  0.24604325031E+02  0.13313884556E+03  0.12509000000E+03 0.  0.
         25    1    1    2    0    0 -0.25044567779E+02  0.39947137367E+02  0.75270544279E+02  0.15341501587E+03  0.12509000000E+03 0.  0.
         25    1    3    3    0    0 -0.12703373424E+02 -0.46887182247E+02 -0.11126526458E+02  0.13465174060E+03  0.12509000000E+03 0.  0.
<mgrwt>
<rscale>  2 0.41174979E+03</rscale>
<asrwt>0</asrwt>
<pdfrwt beam="1">  1       21 0.37496614E-01 0.41174979E+03</pdfrwt>
<pdfrwt beam="2">  1       21 0.24445387E-01 0.41174979E+03</pdfrwt>
<totfact> 0.10198018E+05</totfact>
</mgrwt>
</event>
<event>
 6    0  0.1539497E-004  0.4395059E+03  0.7546771E-02  0.1030899E+00
         21   -1    0    0  502  501  0.00000000000E+00  0.00000000000E+00  0.36631910823E+03  0.36631910823E+03  0.00000000000E+00 0. -1.
         21   -1    0    0  501  502 -0.00000000000E+00 -0.00000000000E+00 -0.13182867070E+03  0.13182867070E+03  0.00000000000E+00 0. -1.
      99925    2    1    2    0    0 -0.15507611314E+02 -0.59576736584E+02  0.63413866656E+02  0.27745664917E+03  0.26300380251E+03 0.  0.
         25    1    1    2    0    0  0.15507611314E+02  0.59576736584E+02  0.17107657088E+03  0.22069112976E+03  0.12509000000E+03 0.  0.
         25    1    3    3    0    0  0.90467058021E+01 -0.32979007729E+02 -0.61357421801E+01  0.12982531829E+03  0.12509000000E+03 0.  0.
         25    1    3    3    0    0 -0.24554317116E+02 -0.26597728855E+02  0.69549608836E+02  0.14763133088E+03  0.12509000000E+03 0.  0.
<mgrwt>
<rscale>  2 0.43950591E+03</rscale>
<asrwt>0</asrwt>
<pdfrwt beam="1">  1       21 0.53870457E-01 0.43950591E+03</pdfrwt>
<pdfrwt beam="2">  1       21 0.19386569E-01 0.43950591E+03</pdfrwt>
<totfact> 0.74102936E+04</totfact>
</mgrwt>
</event>
<event>
 6    0  0.1539497E-004  0.4121424E+03  0.7546771E-02  0.1039654E+00
         21   -1    0    0  502  501  0.00000000000E+00  0.00000000000E+00  0.36808673187E+03  0.36808673187E+03  0.00000000000E+00 0.  1.
         21   -1    0    0  501  502 -0.00000000000E+00 -0.00000000000E+00 -0.11536773656E+03  0.11536773656E+03  0.00000000000E+00 0.  1.
      99925    2    1    2    0    0 -0.38940579141E+02 -0.52597055713E+02  0.16207608100E+03  0.31568538609E+03  0.26287979760E+03 0.  0.
         25    1    3    3    0    0 -0.47715322451E+02 -0.81229533842E+01  0.55270459886E+02  0.14506917731E+03  0.12509000000E+03 0.  0.
         25    1    3    3    0    0  0.87747433106E+01 -0.44474102329E+02  0.10680562111E+03  0.17061620878E+03  0.12509000000E+03 0.  0.
         25    1    1    2    0    0  0.38940579141E+02  0.52597055713E+02  0.90642914315E+02  0.16776908234E+03  0.12509000000E+03 0.  0.
<mgrwt>
<rscale>  2 0.41214237E+03</rscale>
<asrwt>0</asrwt>
<pdfrwt beam="1">  1       21 0.54130401E-01 0.41214237E+03</pdfrwt>
<pdfrwt beam="2">  1       21 0.16965844E-01 0.41214237E+03</pdfrwt>
<totfact> 0.94812415E+04</totfact>
</mgrwt>
</event>
<event>
 6    0  0.1539497E-004  0.4119200E+03  0.7546771E-02  0.1039729E+00
         21   -1    0    0  502  501  0.00000000000E+00  0.00000000000E+00  0.12238587084E+04  0.12238587084E+04  0.00000000000E+00 0. -1.
         21   -1    0    0  501  502 -0.00000000000E+00 -0.00000000000E+00 -0.34660478744E+02  0.34660478744E+02  0.00000000000E+00 0. -1.
      99925    2    1    2    0    0  0.36253072049E+02 -0.44929011427E+02  0.68654037371E+03  0.73732313042E+03  0.26263056299E+03 0.  0.
         25    1    1    2    0    0 -0.36253072049E+02  0.44929011427E+02  0.50265785591E+03  0.52119605669E+03  0.12509000000E+03 0.  0.
         25    1    3    3    0    0  0.53854130797E+02 -0.39321610013E+02  0.38932097680E+03  0.41432449541E+03  0.12509000000E+03 0.  0.
         25    1    3    3    0    0 -0.17601058748E+02 -0.56074014139E+01  0.29721939691E+03  0.32299863501E+03  0.12509000000E+03 0.  0.
<mgrwt>
<rscale>  2 0.41192003E+03</rscale>
<asrwt>0</asrwt>
<pdfrwt beam="1">  1       21 0.17997919E+00 0.41192003E+03</pdfrwt>
<pdfrwt beam="2">  1       21 0.50971300E-02 0.41192003E+03</pdfrwt>
<totfact> 0.43069310E+04</totfact>
</mgrwt>
</event>
<event>
 6    0  0.1539497E-004  0.4027821E+03  0.7546771E-02  0.1042821E+00
         21   -1    0    0  502  501  0.00000000000E+00  0.00000000000E+00  0.44441957314E+03  0.44441957314E+03  0.00000000000E+00 0.  1.
         21   -1    0    0  501  502 -0.00000000000E+00 -0.00000000000E+00 -0.91261427530E+02  0.91261427530E+02  0.00000000000E+00 0.  1.
      99925    2    1    2    0    0 -0.15345648172E+02  0.42982539613E+02  0.26584931542E+03  0.37645371796E+03  0.26259961087E+03 0.  0.
         25    1    3    3    0    0  0.29515224520E+02  0.68337862452E+01  0.13383397869E+03  0.18567953863E+03  0.12509000000E+03 0.  0.
         25    1    3    3    0    0 -0.44860872693E+02  0.36148753368E+02  0.13201533673E+03  0.19077417933E+03  0.12509000000E+03 0.  0.
         25    1    1    2    0    0  0.15345648172E+02 -0.42982539613E+02  0.87308830190E+02  0.15922728271E+03  0.12509000000E+03 0.  0.
<mgrwt>
<rscale>  2 0.40278215E+03</rscale>
<asrwt>0</asrwt>
<pdfrwt beam="1">  1       21 0.65355819E-01 0.40278215E+03</pdfrwt>
<pdfrwt beam="2">  1       21 0.13420798E-01 0.40278215E+03</pdfrwt>
<totfact> 0.97180165E+04</totfact>
</mgrwt>
</event>
<event>
 6    0  0.1539497E-004  0.5880081E+03  0.7546771E-02  0.9930602E-01
         21   -1    0    0  502  501  0.00000000000E+00  0.00000000000E+00  0.14718365423E+04  0.14718365423E+04  0.00000000000E+00 0.  1.
         21   -1    0    0  501  502 -0.00000000000E+00 -0.00000000000E+00 -0.58728255120E+02  0.58728255120E+02  0.00000000000E+00 0.  1.
      99925    2    1    2    0    0  0.16010504052E+03  0.12469349942E+03  0.99891794151E+03  0.10526702030E+04  0.26286005722E+03 0.  0.
         25    1    1    2    0    0 -0.16010504052E+03 -0.12469349942E+03  0.41419034567E+03  0.47789459438E+03  0.12509000000E+03 0.  0.
         25    1    3    3    0    0  0.58140567912E+02  0.39825504787E+02  0.54252482846E+03  0.56120147369E+03  0.12509000000E+03 0.  0.
         25    1    3    3    0    0  0.10196447261E+03  0.84867994635E+02  0.45639311304E+03  0.49146872934E+03  0.12509000000E+03 0.  0.
<mgrwt>
<rscale>  2 0.58800814E+03</rscale>
<asrwt>0</asrwt>
<pdfrwt beam="1">  1       21 0.21644653E+00 0.58800814E+03</pdfrwt>
<pdfrwt beam="2">  1       21 0.86365091E-02 0.58800814E+03</pdfrwt>
<totfact> 0.92025655E+03</totfact>
</mgrwt>
</event>
<event>
 6    0  0.1539497E-004  0.4190057E+03  0.7546771E-02  0.1037390E+00
         21   -1    0    0  502  501  0.00000000000E+00  0.00000000000E+00  0.23568915450E+03  0.23568915450E+03  0.00000000000E+00 0. -1.
         21   -1    0    0  501  502 -0.00000000000E+00 -0.00000000000E+00 -0.18622595985E+03  0.18622595985E+03  0.00000000000E+00 0. -1.
      99925    2    1    2    0    0  0.33996712281E+02 -0.61521007203E+02  0.46689431320E+01  0.27159996593E+03  0.26230541682E+03 0.  0.
         25    1    3    3    0    0  0.38992666503E+02 -0.44577228959E+01  0.21985395941E+02  0.13293293448E+03  0.12509000000E+03 0.  0.
         25    1    1    2    0    0 -0.33996712281E+02  0.61521007203E+02  0.44794251522E+02  0.15031514841E+03  0.12509000000E+03 0.  0.
         25    1    3    3    0    0 -0.49959542223E+01 -0.57063284307E+02 -0.17316452809E+02  0.13866703145E+03  0.12509000000E+03 0.  0.
<mgrwt>
<rscale>  2 0.41900568E+03</rscale>
<asrwt>0</asrwt>
<pdfrwt beam="1">  1       21 0.34660170E-01 0.41900568E+03</pdfrwt>
<pdfrwt beam="2">  1       21 0.27386171E-01 0.41900568E+03</pdfrwt>
<totfact> 0.95712778E+04</totfact>
</mgrwt>
</event>
<event>
 6    0  0.1539497E-004  0.4842918E+03  0.7546771E-02  0.1017962E+00
         21   -1    0    0  502  501  0.00000000000E+00  0.00000000000E+00  0.60761291512E+03  0.60761291512E+03  0.00000000000E+00 0.  1.
         21   -1    0    0  501  502 -0.00000000000E+00 -0.00000000000E+00 -0.96499975203E+02  0.96499975203E+02  0.00000000000E+00 0.  1.
      99925    2    1    2    0    0  0.81771503717E+01  0.75676412681E+02  0.48281443392E+03  0.55497503876E+03  0.26285686376E+03 0.  0.
         25    1    1    2    0    0 -0.81771503717E+01 -0.75676412681E+02  0.28298505995E+02  0.14913785155E+03  0.12509000000E+03 0.  0.
         25    1    3    3    0    0 -0.34303767883E+02  0.44358623149E+02  0.22130747841E+03  0.26032468964E+03  0.12509000000E+03 0.  0.
         25    1    3    3    0    0  0.42480918255E+02  0.31317789532E+02  0.26150695551E+03  0.29465034912E+03  0.12509000000E+03 0.  0.
<mgrwt>
<rscale>  2 0.48429178E+03</rscale>
<asrwt>0</asrwt>
<pdfrwt beam="1">  1       21 0.89354838E-01 0.48429178E+03</pdfrwt>
<pdfrwt beam="2">  1       21 0.14191173E-01 0.48429178E+03</pdfrwt>
<totfact> 0.42096796E+04</totfact>
</mgrwt>
</event>
<event>
 6    0  0.1539497E-004  0.4074933E+03  0.7546771E-02  0.1041215E+00
         21   -1    0    0  502  501  0.00000000000E+00  0.00000000000E+00  0.14930089680E+03  0.14930089680E+03  0.00000000000E+00 0. -1.
         21   -1    0    0  501  502 -0.00000000000E+00 -0.00000000000E+00 -0.27804719041E+03  0.27804719041E+03  0.00000000000E+00 0. -1.
      99925    2    1    2    0    0 -0.51538449377E+02  0.95344511320E+01 -0.11198013873E+03  0.29068891419E+03  0.26308435119E+03 0.  0.
         25    1    3    3    0    0 -0.17542018962E+02 -0.12108853162E+01 -0.97981500397E+02  0.15986579119E+03  0.12509000000E+03 0.  0.
         25    1    3    3    0    0 -0.33996430415E+02  0.10745336448E+02 -0.13998638332E+02  0.13082312300E+03  0.12509000000E+03 0.  0.
         25    1    1    2    0    0  0.51538449377E+02 -0.95344511320E+01 -0.16766154884E+02  0.13665917303E+03  0.12509000000E+03 0.  0.
<mgrwt>
<rscale>  2 0.40749329E+03</rscale>
<asrwt>0</asrwt>
<pdfrwt beam="1">  1       21 0.21956014E-01 0.40749329E+03</pdfrwt>
<pdfrwt beam="2">  1       21 0.40889292E-01 0.40749329E+03</pdfrwt>
<totfact> 0.10511528E+05</totfact>
</mgrwt>
</event>
<event>
 6    0  0.1539497E-004  0.4018607E+03  0.7546771E-02  0.1043137E+00
         21   -1    0    0  502  501  0.00000000000E+00  0.00000000000E+00  0.26121086791E+03  0.26121086791E+03  0.00000000000E+00 0.  1.
         21   -1    0    0  501  502 -0.00000000000E+00 -0.00000000000E+00 -0.15456100004E+03  0.15456100004E+03  0.00000000000E+00 0.  1.
      99925    2    1    2    0    0  0.17709657251E+02  0.31292408085E+02  0.34677068655E+02  0.26704245361E+03  0.26232866061E+03 0.  0.
         25    1    3    3    0    0 -0.18185537743E+01  0.11201126501E+02 -0.20887662715E+02  0.12732861001E+03  0.12509000000E+03 0.  0.
         25    1    3    3    0    0  0.19528211025E+02  0.20091281584E+02  0.55564731370E+02  0.13971384360E+03  0.12509000000E+03 0.  0.
         25    1    1    2    0    0 -0.17709657251E+02 -0.31292408085E+02  0.71972799213E+02  0.14872941434E+03  0.12509000000E+03 0.  0.
<mgrwt>
<rscale>  2 0.40186074E+03</rscale>
<asrwt>0</asrwt>
<pdfrwt beam="1">  1       21 0.38413363E-01 0.40186074E+03</pdfrwt>
<pdfrwt beam="2">  1       21 0.22729559E-01 0.40186074E+03</pdfrwt>
<totfact> 0.11193743E+05</totfact>
</mgrwt>
</event>
<event>
 6    0  0.1539497E-004  0.4415029E+03  0.7546771E-02  0.1030287E+00
         21   -1    0    0  502  501  0.00000000000E+00  0.00000000000E+00  0.48972549295E+02  0.48972549295E+02  0.00000000000E+00 0.  1.
         21   -1    0    0  501  502 -0.00000000000E+00 -0.00000000000E+00 -0.99507197359E+03  0.99507197359E+03  0.00000000000E+00 0.  1.
      99925    2    1    2    0    0  0.89521595109E+02  0.41988065692E+02 -0.56791898692E+03  0.63362392769E+03  0.26300226687E+03 0.  0.
         25    1    3    3    0    0  0.87017942022E+02  0.20989417775E+02 -0.29679825072E+03  0.33428937707E+03  0.12509000000E+03 0.  0.
         25    1    1    2    0    0 -0.89521595109E+02 -0.41988065692E+02 -0.37818043737E+03  0.41042059520E+03  0.12509000000E+03 0.  0.
         25    1    3    3    0    0  0.25036530870E+01  0.20998647917E+02 -0.27112073620E+03  0.29933455062E+03  0.12509000000E+03 0.  0.
<mgrwt>
<rscale>  2 0.44150294E+03</rscale>
<asrwt>0</asrwt>
<pdfrwt beam="1">  1       21 0.72018452E-02 0.44150294E+03</pdfrwt>
<pdfrwt beam="2">  1       21 0.14633412E+00 0.44150294E+03</pdfrwt>
<totfact> 0.41721941E+04</totfact>
</mgrwt>
</event>
<event>
 6    0  0.1539497E-004  0.4616526E+03  0.7546771E-02  0.1024303E+00
         21   -1    0    0  502  501  0.00000000000E+00  0.00000000000E+00  0.50963612982E+02  0.50963612982E+02  0.00000000000E+00 0. -1.
         21   -1    0    0  501  502 -0.00000000000E+00 -0.00000000000E+00 -0.10454670533E+04  0.10454670533E+04  0.00000000000E+00 0. -1.
      99925    2    1    2    0    0  0.94977497267E+02  0.33475963592E+01 -0.45111979823E+03  0.53079366079E+03  0.26306065193E+03 0.  0.
         25    1    3    3    0    0  0.90321434169E+01 -0.15936986481E+02 -0.21612209223E+03  0.25038337405E+03  0.12509000000E+03 0.  0.
         25    1    1    2    0    0 -0.94977497267E+02 -0.33475963592E+01 -0.54338364207E+03  0.56563700547E+03  0.12509000000E+03 0.  0.
         25    1    3    3    0    0  0.85945353850E+02  0.19284582841E+02 -0.23499770601E+03  0.28041028674E+03  0.12509000000E+03 0.  0.
<mgrwt>
<rscale>  2 0.46165259E+03</rscale>
<asrwt>0</asrwt>
<pdfrwt beam="1">  1       21 0.74946493E-02 0.46165259E+03</pdfrwt>
<pdfrwt beam="2">  1       21 0.15374515E+00 0.46165259E+03</pdfrwt>
<totfact> 0.33828206E+04</totfact>
</mgrwt>
</event>
<event>
 6    0  0.1539497E-004  0.4559340E+03  0.7546771E-02  0.1025967E+00
         21   -1    0    0  502  501  0.00000000000E+00  0.00000000000E+00  0.21552186687E+02  0.21552186687E+02  0.00000000000E+00 0. -1.
         21   -1    0    0  501  502 -0.00000000000E+00 -0.00000000000E+00 -0.24113073826E+04  0.24113073826E+04  0.00000000000E+00 0. -1.
      99925    2    1    2    0    0 -0.13457082863E+02  0.81450703360E+02 -0.10824848819E+04  0.11170258061E+04  0.26297874809E+03 0.  0.
         25    1    3    3    0    0 -0.34979796252E+02  0.66550724777E+02 -0.64173224168E+03  0.65811880632E+03  0.12509000000E+03 0.  0.
         25    1    3    3    0    0  0.21522713388E+02  0.14899978582E+02 -0.44075264017E+03  0.45890699981E+03  0.12509000000E+03 0.  0.
         25    1    1    2    0    0  0.13457082863E+02 -0.81450703360E+02 -0.13072703140E+04  0.13158337631E+04  0.12509000000E+03 0.  0.
<mgrwt>
<rscale>  2 0.45593397E+03</rscale>
<asrwt>0</asrwt>
<pdfrwt beam="1">  1       21 0.31694405E-02 0.45593397E+03</pdfrwt>
<pdfrwt beam="2">  1       21 0.35460388E+00 0.45593397E+03</pdfrwt>
<totfact> 0.77867021E+03</totfact>
</mgrwt>
</event>
<event>
 6    0  0.1539497E-004  0.5836679E+03  0.7546771E-02  0.9939882E-01
         21   -1    0    0  502  501  0.00000000000E+00  0.00000000000E+00  0.15465770571E+03  0.15465770571E+03  0.00000000000E+00 0.  1.
         21   -1    0    0  501  502 -0.00000000000E+00 -0.00000000000E+00 -0.55068087267E+03  0.55068087267E+03  0.00000000000E+00 0.  1.
      99925    2    1    2    0    0 -0.31864262846E+02 -0.16670471524E+02 -0.48134161355E+03  0.54971087745E+03  0.26305714966E+03 0.  0.
         25    1    3    3    0    0 -0.44442179283E+02 -0.35534791248E+02 -0.27320435979E+03  0.30582014158E+03  0.12509000000E+03 0.  0.
         25    1    3    3    0    0  0.12577916436E+02  0.18864319724E+02 -0.20813725376E+03  0.24389073587E+03  0.12509000000E+03 0.  0.
         25    1    1    2    0    0  0.31864262846E+02  0.16670471524E+02  0.85318446586E+02  0.15562770093E+03  0.12509000000E+03 0.  0.
<mgrwt>
<rscale>  2 0.58366785E+03</rscale>
<asrwt>0</asrwt>
<pdfrwt beam="1">  1       21 0.22743781E-01 0.58366785E+03</pdfrwt>
<pdfrwt beam="2">  1       21 0.80982479E-01 0.58366785E+03</pdfrwt>
<totfact> 0.21294010E+04</totfact>
</mgrwt>
</event>
<event>
 6    0  0.1539497E-004  0.3960412E+03  0.7546771E-02  0.1045159E+00
         21   -1    0    0  502  501  0.00000000000E+00  0.00000000000E+00  0.17398942781E+03  0.17398942781E+03  0.00000000000E+00 0.  1.
         21   -1    0    0  501  502 -0.00000000000E+00 -0.00000000000E+00 -0.22537094855E+03  0.22537094855E+03  0.00000000000E+00 0.  1.
      99925    2    1    2    0    0 -0.24181607119E+02  0.11688960274E+02 -0.10372873695E+02  0.26500785815E+03  0.26343915134E+03 0.  0.
         25    1    1    2    0    0  0.24181607119E+02 -0.11688960274E+02 -0.41008647048E+02  0.13435251820E+03  0.12509000000E+03 0.  0.
         25    1    3    3    0    0  0.25997095996E+02 -0.87595586451E+01  0.24352932734E+01  0.12808597746E+03  0.12509000000E+03 0.  0.
         25    1    3    3    0    0 -0.50178703115E+02  0.20448518919E+02 -0.12808166968E+02  0.13692188070E+03  0.12509000000E+03 0.  0.
<mgrwt>
<rscale>  2 0.39604122E+03</rscale>
<asrwt>0</asrwt>
<pdfrwt beam="1">  1       21 0.25586681E-01 0.39604122E+03</pdfrwt>
<pdfrwt beam="2">  1       21 0.33142786E-01 0.39604122E+03</pdfrwt>
<totfact> 0.12015192E+05</totfact>
</mgrwt>
</event>
<event>
 6    0  0.1539497E-004  0.4259602E+03  0.7546771E-02  0.1035144E+00
         21   -1    0    0  502  501  0.00000000000E+00  0.00000000000E+00  0.12867660204E+04  0.12867660204E+04  0.00000000000E+00 0. -1.
         21   -1    0    0  501  502 -0.00000000000E+00 -0.00000000000E+00 -0.35251576298E+02  0.35251576298E+02  0.00000000000E+00 0. -1.
      99925    2    1    2    0    0  0.12118267462E+02  0.75234237748E+02  0.91254646185E+03  0.95275638289E+03  0.26305253688E+03 0.  0.
         25    1    3    3    0    0 -0.51454208107E+01  0.25106686837E+02  0.57264164330E+03  0.58670502028E+03  0.12509000000E+03 0.  0.
         25    1    1    2    0    0 -0.12118267462E+02 -0.75234237748E+02  0.33896798228E+03  0.36926121384E+03  0.12509000000E+03 0.  0.
         25    1    3    3    0    0  0.17263688272E+02  0.50127550911E+02  0.33990481856E+03  0.36605136261E+03  0.12509000000E+03 0.  0.
<mgrwt>
<rscale>  2 0.42596024E+03</rscale>
<asrwt>0</asrwt>
<pdfrwt beam="1">  1       21 0.18923027E+00 0.42596024E+03</pdfrwt>
<pdfrwt beam="2">  1       21 0.51840562E-02 0.42596024E+03</pdfrwt>
<totfact> 0.35937647E+04</totfact>
</mgrwt>
</event>
<event>
 6    0  0.1539497E-004  0.4649730E+03  0.7546771E-02  0.1023349E+00
         21   -1    0    0  502  501  0.00000000000E+00  0.00000000000E+00  0.11965571971E+03  0.11965571971E+03  0.00000000000E+00 0.  1.
         21   -1    0    0  501  502 -0.00000000000E+00 -0.00000000000E+00 -0.45171242783E+03  0.45171242783E+03  0.00000000000E+00 0.  1.
      99925    2    1    2    0    0  0.93057614422E+02  0.74780646023E+02 -0.23990816339E+03  0.37543263004E+03  0.26294841360E+03 0.  0.
         25    1    1    2    0    0 -0.93057614422E+02 -0.74780646023E+02 -0.92148544724E+02  0.19593551750E+03  0.12509000000E+03 0.  0.
         25    1    3    3    0    0  0.63822656634E+02  0.74384515753E+02 -0.11416062173E+03  0.19566947472E+03  0.12509000000E+03 0.  0.
         25    1    3    3    0    0  0.29234957788E+02  0.39613026927E+00 -0.12574754166E+03  0.17976315532E+03  0.12509000000E+03 0.  0.
<mgrwt>
<rscale>  2 0.46497301E+03</rscale>
<asrwt>0</asrwt>
<pdfrwt beam="1">  1       21 0.17596430E-01 0.46497301E+03</pdfrwt>
<pdfrwt beam="2">  1       21 0.66428296E-01 0.46497301E+03</pdfrwt>
<totfact> 0.55932817E+04</totfact>
</mgrwt>
</event>
<event>
 6    0  0.1539497E-004  0.4095988E+03  0.7546771E-02  0.1040506E+00
         21   -1    0    0  502  501  0.00000000000E+00  0.00000000000E+00  0.59443308274E+03  0.59443308274E+03  0.00000000000E+00 0.  1.
         21   -1    0    0  501  502 -0.00000000000E+00 -0.00000000000E+00 -0.70559335678E+02  0.70559335678E+02  0.00000000000E+00 0.  1.
      99925    2    1    2    0    0  0.10717645098E+01 -0.14713396255E+02  0.24825516046E+03  0.36195653591E+03  0.26299101978E+03 0.  0.
         25    1    1    2    0    0 -0.10717645098E+01  0.14713396255E+02  0.27561858660E+03  0.30303588251E+03  0.12509000000E+03 0.  0.
         25    1    3    3    0    0 -0.35342611688E+02 -0.11428241736E+02  0.98876607607E+02  0.16371865056E+03  0.12509000000E+03 0.  0.
         25    1    3    3    0    0  0.36414376197E+02 -0.32851545189E+01  0.14937855285E+03  0.19823788535E+03  0.12509000000E+03 0.  0.
<mgrwt>
<rscale>  2 0.40959884E+03</rscale>
<asrwt>0</asrwt>
<pdfrwt beam="1">  1       21 0.87416627E-01 0.40959884E+03</pdfrwt>
<pdfrwt beam="2">  1       21 0.10376373E-01 0.40959884E+03</pdfrwt>
<totfact> 0.79772811E+04</totfact>
</mgrwt>
</event>
<event>
 6    0  0.1539497E-004  0.4347874E+03  0.7546771E-02  0.1032358E+00
         21   -1    0    0  502  501  0.00000000000E+00  0.00000000000E+00  0.75289893877E+02  0.75289893877E+02  0.00000000000E+00 0. -1.
         21   -1    0    0  501  502 -0.00000000000E+00 -0.00000000000E+00 -0.62770731047E+03  0.62770731047E+03  0.00000000000E+00 0. -1.
      99925    2    1    2    0    0 -0.63658211508E+02  0.66483643744E+02 -0.33418205592E+03  0.43514160234E+03  0.26305536454E+03 0.  0.
         25    1    1    2    0    0  0.63658211508E+02 -0.66483643744E+02 -0.21823536067E+03  0.26785560201E+03  0.12509000000E+03 0.  0.
         25    1    3    3    0    0 -0.60296562456E+02  0.30720750490E+02 -0.22022281101E+03  0.26215460046E+03  0.12509000000E+03 0.  0.
         25    1    3    3    0    0 -0.33616490526E+01  0.35762893253E+02 -0.11395924491E+03  0.17298700188E+03  0.12509000000E+03 0.  0.
<mgrwt>
<rscale>  2 0.43478738E+03</rscale>
<asrwt>0</asrwt>
<pdfrwt beam="1">  1       21 0.11072043E-01 0.43478738E+03</pdfrwt>
<pdfrwt beam="2">  1       21 0.92309900E-01 0.43478738E+03</pdfrwt>
<totfact> 0.62033938E+04</totfact>
</mgrwt>
</event>
<event>
 6    0  0.1539497E-004  0.4187090E+03  0.7546771E-02  0.1037487E+00
         21   -1    0    0  502  501  0.00000000000E+00  0.00000000000E+00  0.54356789411E+03  0.54356789411E+03  0.00000000000E+00 0. -1.
         21   -1    0    0  501  502 -0.00000000000E+00 -0.00000000000E+00 -0.80632643956E+02  0.80632643956E+02  0.00000000000E+00 0. -1.
      99925    2    1    2    0    0  0.14204832072E+02  0.60755676535E+02  0.24172344049E+03  0.36252286932E+03  0.26286798894E+03 0.  0.
         25    1    3    3    0    0 -0.26824792926E+02  0.45621513810E+02  0.14340690352E+03  0.19751946768E+03  0.12509000000E+03 0.  0.
         25    1    1    2    0    0 -0.14204832072E+02 -0.60755676535E+02  0.22121180966E+03  0.26167766875E+03  0.12509000000E+03 0.  0.
         25    1    3    3    0    0  0.41029624998E+02  0.15134162725E+02  0.98316536972E+02  0.16500340163E+03  0.12509000000E+03 0.  0.
<mgrwt>
<rscale>  2 0.41870905E+03</rscale>
<asrwt>0</asrwt>
<pdfrwt beam="1">  1       21 0.79936453E-01 0.41870905E+03</pdfrwt>
<pdfrwt beam="2">  1       21 0.11857742E-01 0.41870905E+03</pdfrwt>
<totfact> 0.77008393E+04</totfact>
</mgrwt>
</event>
<event>
 6    0  0.1539497E-004  0.4649335E+03  0.7546771E-02  0.1023360E+00
         21   -1    0    0  502  501  0.00000000000E+00  0.00000000000E+00  0.12909296102E+03  0.12909296102E+03  0.00000000000E+00 0. -1.
         21   -1    0    0  501  502 -0.00000000000E+00 -0.00000000000E+00 -0.41861910406E+03  0.41861910406E+03  0.00000000000E+00 0. -1.
      99925    2    1    2    0    0 -0.72231766650E+02  0.51301453500E+02 -0.81409106073E+02  0.28923677337E+03  0.26302319532E+03 0.  0.
         25    1    3    3    0    0 -0.68515807221E+02  0.39592534189E+02 -0.20058606822E+02  0.14937148460E+03  0.12509000000E+03 0.  0.
         25    1    1    2    0    0  0.72231766650E+02 -0.51301453500E+02 -0.20811703697E+03  0.25847529171E+03  0.12509000000E+03 0.  0.
         25    1    3    3    0    0 -0.37159594291E+01  0.11708919310E+02 -0.61350499252E+02  0.13986528878E+03  0.12509000000E+03 0.  0.
<mgrwt>
<rscale>  2 0.46493346E+03</rscale>
<asrwt>0</asrwt>
<pdfrwt beam="1">  1       21 0.18984259E-01 0.46493346E+03</pdfrwt>
<pdfrwt beam="2">  1       21 0.61561632E-01 0.46493346E+03</pdfrwt>
<totfact> 0.57372528E+04</totfact>
</mgrwt>
</event>
<event>
 6    0  0.1539497E-004  0.4095002E+03  0.7546771E-02  0.1040539E+00
         21   -1    0    0  502  501  0.00000000000E+00  0.00000000000E+00  0.91921610683E+03  0.91921610683E+03  0.00000000000E+00 0. -1.
         21   -1    0    0  501  502 -0.00000000000E+00 -0.00000000000E+00 -0.45606900129E+02  0.45606900129E+02  0.00000000000E+00 0. -1.
      99925    2    1    2    0    0  0.54655814497E+02  0.54713174996E+01  0.51223574724E+03  0.57848704089E+03  0.26314369146E+03 0.  0.
         25    1    1    2    0    0 -0.54655814497E+02 -0.54713174996E+01  0.36137345947E+03  0.38633596607E+03  0.12509000000E+03 0.  0.
         25    1    3    3    0    0  0.45456808281E+02  0.37986461386E+02  0.28725852074E+03  0.31886401256E+03  0.12509000000E+03 0.  0.
         25    1    3    3    0    0  0.91990062157E+01 -0.32515143886E+02  0.22497722650E+03  0.25962302833E+03  0.12509000000E+03 0.  0.
<mgrwt>
<rscale>  2 0.40950017E+03</rscale>
<asrwt>0</asrwt>
<pdfrwt beam="1">  1       21 0.13517883E+00 0.40950017E+03</pdfrwt>
<pdfrwt beam="2">  1       21 0.67068976E-02 0.40950017E+03</pdfrwt>
<totfact> 0.58857253E+04</totfact>
</mgrwt>
</event>
<event>
 6    0  0.1681549E-004  0.4038184E+03  0.7546771E-02  0.1042465E+00
         21   -1    0    0  502  501  0.00000000000E+00  0.00000000000E+00  0.10750665690E+03  0.10750665690E+03  0.00000000000E+00 0. -1.
         21   -1    0    0  501  502 -0.00000000000E+00 -0.00000000000E+00 -0.37920751133E+03  0.37920751133E+03  0.00000000000E+00 0. -1.
      99925    2    1    2    0    0 -0.86117416797E+01 -0.34019955191E+00 -0.11799341619E+03  0.28835146381E+03  0.26296357654E+03 0.  0.
         25    1    3    3    0    0  0.33585232862E+01  0.10126920626E+02 -0.10097283043E+03  0.16111131179E+03  0.12509000000E+03 0.  0.
         25    1    3    3    0    0 -0.11970264966E+02 -0.10467120178E+02 -0.17020585759E+02  0.12724015203E+03  0.12509000000E+03 0.  0.
         25    1    1    2    0    0  0.86117416797E+01  0.34019955191E+00 -0.15370743824E+03  0.19836270441E+03  0.12509000000E+03 0.  0.
<mgrwt>
<rscale>  2 0.40381843E+03</rscale>
<asrwt>0</asrwt>
<pdfrwt beam="1">  1       21 0.15809802E-01 0.40381843E+03</pdfrwt>
<pdfrwt beam="2">  1       21 0.55765811E-01 0.40381843E+03</pdfrwt>
<totfact> 0.10160753E+05</totfact>
</mgrwt>
</event>
<event>
 6    0  0.1539497E-004  0.4801708E+03  0.7546771E-02  0.1019088E+00
         21   -1    0    0  502  501  0.00000000000E+00  0.00000000000E+00  0.16102424436E+03  0.16102424436E+03  0.00000000000E+00 0. -1.
         21   -1    0    0  501  502 -0.00000000000E+00 -0.00000000000E+00 -0.35796467860E+03  0.35796467860E+03  0.00000000000E+00 0. -1.
      99925    2    1    2    0    0  0.12529607794E+03 -0.45964868035E+02 -0.96658223053E+02  0.31038425806E+03  0.26302794400E+03 0.  0.
         25    1    3    3    0    0  0.20123516259E+02 -0.85212097816E+01 -0.34707327840E+02  0.13164221826E+03  0.12509000000E+03 0.  0.
         25    1    3    3    0    0  0.10517256168E+03 -0.37443658254E+02 -0.61950895213E+02  0.17874203980E+03  0.12509000000E+03 0.  0.
         25    1    1    2    0    0 -0.12529607794E+03  0.45964868035E+02 -0.10028221119E+03  0.20860466491E+03  0.12509000000E+03 0.  0.
<mgrwt>
<rscale>  2 0.48017077E+03</rscale>
<asrwt>0</asrwt>
<pdfrwt beam="1">  1       21 0.23680036E-01 0.48017077E+03</pdfrwt>
<pdfrwt beam="2">  1       21 0.52641865E-01 0.48017077E+03</pdfrwt>
<totfact> 0.52629269E+04</totfact>
</mgrwt>
</event>
<event>
 6    0  0.1539497E-004  0.3964399E+03  0.7546771E-02  0.1045019E+00
         21   -1    0    0  502  501  0.00000000000E+00  0.00000000000E+00  0.76951934570E+03  0.76951934570E+03  0.00000000000E+00 0. -1.
         21   -1    0    0  501  502 -0.00000000000E+00 -0.00000000000E+00 -0.51059330371E+02  0.51059330371E+02  0.00000000000E+00 0. -1.
      99925    2    1    2    0    0 -0.25079396789E+02  0.27182057988E+02  0.46200394533E+03  0.53285473831E+03  0.26290432903E+03 0.  0.
         25    1    3    3    0    0  0.17425284413E+02 -0.72808409613E+01  0.25844552073E+03  0.28774684441E+03  0.12509000000E+03 0.  0.
         25    1    3    3    0    0 -0.42504681202E+02  0.34462898950E+02  0.20355842460E+03  0.24510789390E+03  0.12509000000E+03 0.  0.
         25    1    1    2    0    0  0.25079396789E+02 -0.27182057988E+02  0.25645607000E+03  0.28772393776E+03  0.12509000000E+03 0.  0.
<mgrwt>
<rscale>  2 0.39643987E+03</rscale>
<asrwt>0</asrwt>
<pdfrwt beam="1">  1       21 0.11316460E+00 0.39643987E+03</pdfrwt>
<pdfrwt beam="2">  1       21 0.75087255E-02 0.39643987E+03</pdfrwt>
<totfact> 0.76223259E+04</totfact>
</mgrwt>
</event>
<event>
 6    0  0.1539497E-004  0.4099647E+03  0.7546771E-02  0.1040383E+00
         21   -1    0    0  502  501  0.00000000000E+00  0.00000000000E+00  0.40764942021E+03  0.40764942021E+03  0.00000000000E+00 0.  1.
         21   -1    0    0  501  502 -0.00000000000E+00 -0.00000000000E+00 -0.10307328088E+03  0.10307328088E+03  0.00000000000E+00 0.  1.
      99925    2    1    2    0    0 -0.34634433337E-01  0.61324415458E+02  0.18810190009E+03  0.32913404055E+03  0.26303271032E+03 0.  0.
         25    1    1    2    0    0  0.34634433337E-01 -0.61324415458E+02  0.11647423924E+03  0.18158866054E+03  0.12509000000E+03 0.  0.
         25    1    3    3    0    0  0.24811835977E+02  0.37634310029E+02  0.56877118555E+02  0.14461840551E+03  0.12509000000E+03 0.  0.
         25    1    3    3    0    0 -0.24846470410E+02  0.23690105429E+02  0.13122478153E+03  0.18451563504E+03  0.12509000000E+03 0.  0.
<mgrwt>
<rscale>  2 0.40996470E+03</rscale>
<asrwt>0</asrwt>
<pdfrwt beam="1">  1       21 0.59948443E-01 0.40996470E+03</pdfrwt>
<pdfrwt beam="2">  1       21 0.15157836E-01 0.40996470E+03</pdfrwt>
<totfact> 0.93771760E+04</totfact>
</mgrwt>
</event>
<event>
 6    0  0.1539497E-004  0.4389500E+03  0.7546771E-02  0.1031069E+00
         21   -1    0    0  502  501  0.00000000000E+00  0.00000000000E+00  0.42030808119E+02  0.42030808119E+02  0.00000000000E+00 0. -1.
         21   -1    0    0  501  502 -0.00000000000E+00 -0.00000000000E+00 -0.11460470059E+04  0.11460470059E+04  0.00000000000E+00 0. -1.
      99925    2    1    2    0    0  0.70810796200E+02  0.41326336180E+02 -0.56339244238E+03  0.62714681299E+03  0.26302099913E+03 0.  0.
         25    1    1    2    0    0 -0.70810796200E+02 -0.41326336180E+02 -0.54062375543E+03  0.56093100106E+03  0.12509000000E+03 0.  0.
         25    1    3    3    0    0  0.19622905167E+01 -0.21322420347E+01 -0.22889604268E+03  0.26086261422E+03  0.12509000000E+03 0.  0.
         25    1    3    3    0    0  0.68848505683E+02  0.43458578215E+02 -0.33449639970E+03  0.36628419877E+03  0.12509000000E+03 0.  0.
<mgrwt>
<rscale>  2 0.43895003E+03</rscale>
<asrwt>0</asrwt>
<pdfrwt beam="1">  1       21 0.61810014E-02 0.43895003E+03</pdfrwt>
<pdfrwt beam="2">  1       21 0.16853632E+00 0.43895003E+03</pdfrwt>
<totfact> 0.36943936E+04</totfact>
</mgrwt>
</event>
<event>
 6    0  0.1539497E-004  0.4245510E+03  0.7546771E-02  0.1035595E+00
         21   -1    0    0  502  501  0.00000000000E+00  0.00000000000E+00  0.12986268015E+03  0.12986268015E+03  0.00000000000E+00 0. -1.
         21   -1    0    0  501  502 -0.00000000000E+00 -0.00000000000E+00 -0.34698871364E+03  0.34698871364E+03  0.00000000000E+00 0. -1.
      99925    2    1    2    0    0 -0.35689509319E+02  0.73077415221E+02 -0.14120036665E+03  0.30944092615E+03  0.26306290796E+03 0.  0.
         25    1    3    3    0    0  0.22225553477E+02  0.26901309473E+02 -0.70918156750E+02  0.14796806661E+03  0.12509000000E+03 0.  0.
         25    1    3    3    0    0 -0.57915062796E+02  0.46176105748E+02 -0.70282209905E+02  0.16147285955E+03  0.12509000000E+03 0.  0.
         25    1    1    2    0    0  0.35689509319E+02 -0.73077415221E+02 -0.75925666827E+02  0.16741046764E+03  0.12509000000E+03 0.  0.
<mgrwt>
<rscale>  2 0.42455098E+03</rscale>
<asrwt>0</asrwt>
<pdfrwt beam="1">  1       21 0.19097453E-01 0.42455098E+03</pdfrwt>
<pdfrwt beam="2">  1       21 0.51027751E-01 0.42455098E+03</pdfrwt>
<totfact> 0.85886541E+04</totfact>
</mgrwt>
</event>
<event>
 6    0  0.1539497E-004  0.4474045E+03  0.7546771E-02  0.1028499E+00
         21   -1    0    0  502  501  0.00000000000E+00  0.00000000000E+00  0.15223508217E+03  0.15223508217E+03  0.00000000000E+00 0. -1.
         21   -1    0    0  501  502 -0.00000000000E+00 -0.00000000000E+00 -0.32871980044E+03  0.32871980044E+03  0.00000000000E+00 0. -1.
      99925    2    1    2    0    0  0.61630820022E+02 -0.30687106489E+02 -0.19843059947E+03  0.33649317043E+03  0.26289331384E+03 0.  0.
         25    1    3    3    0    0  0.41059101091E+02 -0.53414813071E+02 -0.90474645303E+02  0.16844037990E+03  0.12509000000E+03 0.  0.
         25    1    1    2    0    0 -0.61630820022E+02  0.30687106489E+02  0.21945881200E+02  0.14446171217E+03  0.12509000000E+03 0.  0.
         25    1    3    3    0    0  0.20571718930E+02  0.22727706582E+02 -0.10795595417E+03  0.16805279053E+03  0.12509000000E+03 0.  0.
<mgrwt>
<rscale>  2 0.44740445E+03</rscale>
<asrwt>0</asrwt>
<pdfrwt beam="1">  1       21 0.22387512E-01 0.44740445E+03</pdfrwt>
<pdfrwt beam="2">  1       21 0.48341146E-01 0.44740445E+03</pdfrwt>
<totfact> 0.70804560E+04</totfact>
</mgrwt>
</event>
<event>
 6    0  0.1539497E-004  0.4589618E+03  0.7546771E-02  0.1025083E+00
         21   -1    0    0  502  501  0.00000000000E+00  0.00000000000E+00  0.57664366247E+02  0.57664366247E+02  0.00000000000E+00 0. -1.
         21   -1    0    0  501  502 -0.00000000000E+00 -0.00000000000E+00 -0.91324135445E+03  0.91324135445E+03  0.00000000000E+00 0. -1.
      99925    2    1    2    0    0  0.76537688437E+02  0.84122814700E+02 -0.59296487070E+03  0.65858009244E+03  0.26303181286E+03 0.  0.
         25    1    1    2    0    0 -0.76537688437E+02 -0.84122814700E+02 -0.26261211750E+03  0.31232562825E+03  0.12509000000E+03 0.  0.
         25    1    3    3    0    0  0.27364075959E+02  0.18752361665E+02 -0.20070668682E+03  0.23881190497E+03  0.12509000000E+03 0.  0.
         25    1    3    3    0    0  0.49173612478E+02  0.65370453035E+02 -0.39225818387E+03  0.41976818747E+03  0.12509000000E+03 0.  0.
<mgrwt>
<rscale>  2 0.45896180E+03</rscale>
<asrwt>0</asrwt>
<pdfrwt beam="1">  1       21 0.84800547E-02 0.45896180E+03</pdfrwt>
<pdfrwt beam="2">  1       21 0.13430019E+00 0.45896180E+03</pdfrwt>
<totfact> 0.39081101E+04</totfact>
</mgrwt>
</event>
<event>
 6    0  0.1539497E-004  0.4211864E+03  0.7546771E-02  0.1036681E+00
         21   -1    0    0  502  501  0.00000000000E+00  0.00000000000E+00  0.87627588054E+02  0.87627588054E+02  0.00000000000E+00 0.  1.
         21   -1    0    0  501  502 -0.00000000000E+00 -0.00000000000E+00 -0.50611342826E+03  0.50611342826E+03  0.00000000000E+00 0.  1.
      99925    2    1    2    0    0 -0.74243835646E+02 -0.21101314001E+02 -0.27920611205E+03  0.39124715626E+03  0.26298454649E+03 0.  0.
         25    1    1    2    0    0  0.74243835646E+02  0.21101314001E+02 -0.13927972816E+03  0.20249386006E+03  0.12509000000E+03 0.  0.
         25    1    3    3    0    0 -0.38648198450E+02  0.16715228819E+02 -0.95065436824E+02  0.16265923735E+03  0.12509000000E+03 0.  0.
         25    1    3    3    0    0 -0.35595637196E+02 -0.37816542820E+02 -0.18414067523E+03  0.22858791891E+03  0.12509000000E+03 0.  0.
<mgrwt>
<rscale>  2 0.42118641E+03</rscale>
<asrwt>0</asrwt>
<pdfrwt beam="1">  1       21 0.12886410E-01 0.42118641E+03</pdfrwt>
<pdfrwt beam="2">  1       21 0.74428446E-01 0.42118641E+03</pdfrwt>
<totfact> 0.77878510E+04</totfact>
</mgrwt>
</event>
<event>
 6    0  0.1539497E-004  0.4307339E+03  0.7546771E-02  0.1033628E+00
         21   -1    0    0  502  501  0.00000000000E+00  0.00000000000E+00  0.24070502848E+02  0.24070502848E+02  0.00000000000E+00 0.  1.
         21   -1    0    0  501  502 -0.00000000000E+00 -0.00000000000E+00 -0.19269608795E+04  0.19269608795E+04  0.00000000000E+00 0.  1.
      99925    2    1    2    0    0 -0.67186312897E+02 -0.35980974418E+02 -0.10214226163E+04  0.10574758151E+04  0.26294924838E+03 0.  0.
         25    1    3    3    0    0 -0.49846337159E+02 -0.37823981705E+02 -0.41171221647E+03  0.43482153604E+03  0.12509000000E+03 0.  0.
         25    1    3    3    0    0 -0.17339975738E+02  0.18430072864E+01 -0.60971039982E+03  0.62265427902E+03  0.12509000000E+03 0.  0.
         25    1    1    2    0    0  0.67186312897E+02  0.35980974418E+02 -0.88146776041E+03  0.89355556733E+03  0.12509000000E+03 0.  0.
<mgrwt>
<rscale>  2 0.43073387E+03</rscale>
<asrwt>0</asrwt>
<pdfrwt beam="1">  1       21 0.35397789E-02 0.43073387E+03</pdfrwt>
<pdfrwt beam="2">  1       21 0.28337667E+00 0.43073387E+03</pdfrwt>
<totfact> 0.17618249E+04</totfact>
</mgrwt>
</event>
<event>
 6    0  0.1539497E-004  0.4281293E+03  0.7546771E-02  0.1034453E+00
         21   -1    0    0  502  501  0.00000000000E+00  0.00000000000E+00  0.99349184430E+03  0.99349184430E+03  0.00000000000E+00 0. -1.
         21   -1    0    0  501  502 -0.00000000000E+00 -0.00000000000E+00 -0.46123865783E+02  0.46123865783E+02  0.00000000000E+00 0. -1.
      99925    2    1    2    0    0 -0.47067238888E+02  0.67913395890E+02  0.55794152847E+03  0.62232921089E+03  0.26299685019E+03 0.  0.
         25    1    1    2    0    0  0.47067238888E+02 -0.67913395890E+02  0.38942645004E+03  0.41728649919E+03  0.12509000000E+03 0.  0.
         25    1    3    3    0    0 -0.20040635139E+01  0.59795320240E+02  0.33591339349E+03  0.36340722698E+03  0.12509000000E+03 0.  0.
         25    1    3    3    0    0 -0.45063175374E+02  0.81180756491E+01  0.22202813498E+03  0.25892198390E+03  0.12509000000E+03 0.  0.
<mgrwt>
<rscale>  2 0.42812935E+03</rscale>
<asrwt>0</asrwt>
<pdfrwt beam="1">  1       21 0.14610173E+00 0.42812935E+03</pdfrwt>
<pdfrwt beam="2">  1       21 0.67829221E-02 0.42812935E+03</pdfrwt>
<totfact> 0.46717217E+04</totfact>
</mgrwt>
</event>
<event>
 6    0  0.1539497E-004  0.4063805E+03  0.7546771E-02  0.1041592E+00
         21   -1    0    0  502  501  0.00000000000E+00  0.00000000000E+00  0.34280451494E+03  0.34280451494E+03  0.00000000000E+00 0.  1.
         21   -1    0    0  501  502 -0.00000000000E+00 -0.00000000000E+00 -0.12043682028E+03  0.12043682028E+03  0.00000000000E+00 0.  1.
      99925    2    1    2    0    0  0.24187605880E+02 -0.41642756811E+02  0.18139867520E+03  0.32308025599E+03  0.26297568894E+03 0.  0.
         25    1    1    2    0    0 -0.24187605880E+02  0.41642756811E+02  0.40969019460E+02  0.14016107922E+03  0.12509000000E+03 0.  0.
         25    1    3    3    0    0  0.26850200477E+02 -0.33025715807E+02  0.49570079589E+02  0.14112523538E+03  0.12509000000E+03 0.  0.
         25    1    3    3    0    0 -0.26625945969E+01 -0.86170410040E+01  0.13182859561E+03  0.18195502062E+03  0.12509000000E+03 0.  0.
<mgrwt>
<rscale>  2 0.40638054E+03</rscale>
<asrwt>0</asrwt>
<pdfrwt beam="1">  1       21 0.50412428E-01 0.40638054E+03</pdfrwt>
<pdfrwt beam="2">  1       21 0.17711297E-01 0.40638054E+03</pdfrwt>
<totfact> 0.10195801E+05</totfact>
</mgrwt>
</event>
<event>
 6    0  0.1539497E-004  0.4621316E+03  0.7546771E-02  0.1024165E+00
         21   -1    0    0  502  501  0.00000000000E+00  0.00000000000E+00  0.15350227923E+04  0.15350227923E+04  0.00000000000E+00 0.  1.
         21   -1    0    0  501  502 -0.00000000000E+00 -0.00000000000E+00 -0.34782151615E+02  0.34782151615E+02  0.00000000000E+00 0.  1.
      99925    2    1    2    0    0 -0.62344955304E+02  0.90016155718E+02  0.77331358684E+03  0.82411046796E+03  0.26297216218E+03 0.  0.
         25    1    3    3    0    0 -0.69410531185E+02  0.40363621390E+02  0.36397068436E+03  0.39315291039E+03  0.12509000000E+03 0.  0.
         25    1    3    3    0    0  0.70655758809E+01  0.49652534328E+02  0.40934290247E+03  0.43095755758E+03  0.12509000000E+03 0.  0.
         25    1    1    2    0    0  0.62344955304E+02 -0.90016155718E+02  0.72692705382E+03  0.74569447592E+03  0.12509000000E+03 0.  0.
<mgrwt>
<rscale>  2 0.46213156E+03</rscale>
<asrwt>0</asrwt>
<pdfrwt beam="1">  1       21 0.22573860E+00 0.46213156E+03</pdfrwt>
<pdfrwt beam="2">  1       21 0.51150233E-02 0.46213156E+03</pdfrwt>
<totfact> 0.20935327E+04</totfact>
</mgrwt>
</event>
<event>
 6    0  0.1539497E-004  0.3996285E+03  0.7546771E-02  0.1043908E+00
         21   -1    0    0  502  501  0.00000000000E+00  0.00000000000E+00  0.25304602276E+03  0.25304602276E+03  0.00000000000E+00 0.  1.
         21   -1    0    0  501  502 -0.00000000000E+00 -0.00000000000E+00 -0.15778051922E+03  0.15778051922E+03  0.00000000000E+00 0.  1.
      99925    2    1    2    0    0  0.31041977781E+01 -0.24425868225E+02  0.10208113226E+03  0.28315422714E+03  0.26296292457E+03 0.  0.
         25    1    3    3    0    0 -0.53590237075E+01 -0.51768724994E+02  0.45622473046E+02  0.14296026780E+03  0.12509000000E+03 0.  0.
         25    1    3    3    0    0  0.84632214855E+01  0.27342856769E+02  0.56458659218E+02  0.14019395934E+03  0.12509000000E+03 0.  0.
         25    1    1    2    0    0 -0.31041977781E+01  0.24425868225E+02 -0.68156287262E+01  0.12767231484E+03  0.12509000000E+03 0.  0.
<mgrwt>
<rscale>  2 0.39962849E+03</rscale>
<asrwt>0</asrwt>
<pdfrwt beam="1">  1       21 0.37212650E-01 0.39962849E+03</pdfrwt>
<pdfrwt beam="2">  1       21 0.23203018E-01 0.39962849E+03</pdfrwt>
<totfact> 0.11482929E+05</totfact>
</mgrwt>
</event>
<event>
 6    0  0.1539497E-004  0.4273879E+03  0.7546771E-02  0.1034688E+00
         21   -1    0    0  502  501  0.00000000000E+00  0.00000000000E+00  0.10982338721E+04  0.10982338721E+04  0.00000000000E+00 0. -1.
         21   -1    0    0  501  502 -0.00000000000E+00 -0.00000000000E+00 -0.41580486939E+02  0.41580486939E+02  0.00000000000E+00 0. -1.
      99925    2    1    2    0    0 -0.62246036849E+02  0.40873171158E+02  0.57543962031E+03  0.63706255068E+03  0.26300713229E+03 0.  0.
         25    1    1    2    0    0  0.62246036849E+02 -0.40873171158E+02  0.48121376489E+03  0.50275180840E+03  0.12509000000E+03 0.  0.
         25    1    3    3    0    0  0.90080683128E+01  0.28904453590E+02  0.28290353084E+03  0.31080303826E+03  0.12509000000E+03 0.  0.
         25    1    3    3    0    0 -0.71254105162E+02  0.11968717568E+02  0.29253608947E+03  0.32625951242E+03  0.12509000000E+03 0.  0.
<mgrwt>
<rscale>  2 0.42738788E+03</rscale>
<asrwt>0</asrwt>
<pdfrwt beam="1">  1       21 0.16150496E+00 0.42738788E+03</pdfrwt>
<pdfrwt beam="2">  1       21 0.61147782E-02 0.42738788E+03</pdfrwt>
<totfact> 0.42575521E+04</totfact>
</mgrwt>
</event>
<event>
 6    0  0.1539497E-004  0.4663845E+03  0.7546771E-02  0.1022946E+00
         21   -1    0    0  502  501  0.00000000000E+00  0.00000000000E+00  0.76277703771E+03  0.76277703771E+03  0.00000000000E+00 0.  1.
         21   -1    0    0  501  502 -0.00000000000E+00 -0.00000000000E+00 -0.71290319661E+02  0.71290319661E+02  0.00000000000E+00 0.  1.
      99925    2    1    2    0    0  0.42450072683E+02  0.11529290585E+03  0.45579410214E+03  0.54031068919E+03  0.26285531094E+03 0.  0.
         25    1    1    2    0    0 -0.42450072683E+02 -0.11529290585E+03  0.23569261590E+03  0.29375666818E+03  0.12509000000E+03 0.  0.
         25    1    3    3    0    0 -0.18771344730E+02  0.55558018757E+02  0.20223960349E+03  0.24492329851E+03  0.12509000000E+03 0.  0.
         25    1    3    3    0    0  0.61221417413E+02  0.59734887094E+02  0.25355449865E+03  0.29538739068E+03  0.12509000000E+03 0.  0.
<mgrwt>
<rscale>  2 0.46638447E+03</rscale>
<asrwt>0</asrwt>
<pdfrwt beam="1">  1       21 0.11217309E+00 0.46638447E+03</pdfrwt>
<pdfrwt beam="2">  1       21 0.10483871E-01 0.46638447E+03</pdfrwt>
<totfact> 0.42257834E+04</totfact>
</mgrwt>
</event>
<event>
 6    0  0.1539497E-004  0.5594852E+03  0.7546771E-02  0.9993220E-01
         21   -1    0    0  502  501  0.00000000000E+00  0.00000000000E+00  0.21054528251E+03  0.21054528251E+03  0.00000000000E+00 0. -1.
         21   -1    0    0  501  502 -0.00000000000E+00 -0.00000000000E+00 -0.37168218640E+03  0.37168218640E+03  0.00000000000E+00 0. -1.
      99925    2    1    2    0    0  0.16783127192E+03 -0.69884099218E+02 -0.19328194007E+02  0.31991402767E+03  0.26252672790E+03 0.  0.
         25    1    3    3    0    0  0.64020943261E+02  0.39202142298E+01 -0.25048367327E+01  0.14059812077E+03  0.12509000000E+03 0.  0.
         25    1    1    2    0    0 -0.16783127192E+03  0.69884099218E+02 -0.14180870988E+03  0.26231344124E+03  0.12509000000E+03 0.  0.
         25    1    3    3    0    0  0.10381032865E+03 -0.73804313448E+02 -0.16823357274E+02  0.17931590690E+03  0.12509000000E+03 0.  0.
<mgrwt>
<rscale>  2 0.55948523E+03</rscale>
<asrwt>0</asrwt>
<pdfrwt beam="1">  1       21 0.30962542E-01 0.55948523E+03</pdfrwt>
<pdfrwt beam="2">  1       21 0.54659144E-01 0.55948523E+03</pdfrwt>
<totfact> 0.28173430E+04</totfact>
</mgrwt>
</event>
<event>
 6    0  0.1539497E-004  0.4028799E+03  0.7546771E-02  0.1042787E+00
         21   -1    0    0  502  501  0.00000000000E+00  0.00000000000E+00  0.34027921988E+03  0.34027921988E+03  0.00000000000E+00 0. -1.
         21   -1    0    0  501  502 -0.00000000000E+00 -0.00000000000E+00 -0.11924930179E+03  0.11924930179E+03  0.00000000000E+00 0. -1.
      99925    2    1    2    0    0 -0.21133192745E+02  0.45181005352E+02  0.13648067292E+03  0.30051903127E+03  0.26305280647E+03 0.  0.
         25    1    3    3    0    0  0.55354314642E+01 -0.32389904910E+01  0.96251506115E+02  0.15796516258E+03  0.12509000000E+03 0.  0.
         25    1    3    3    0    0 -0.26668624209E+02  0.48419995843E+02  0.40229166810E+02  0.14255386868E+03  0.12509000000E+03 0.  0.
         25    1    1    2    0    0  0.21133192745E+02 -0.45181005352E+02  0.84549245167E+02  0.15900949040E+03  0.12509000000E+03 0.  0.
<mgrwt>
<rscale>  2 0.40287993E+03</rscale>
<asrwt>0</asrwt>
<pdfrwt beam="1">  1       21 0.50041062E-01 0.40287993E+03</pdfrwt>
<pdfrwt beam="2">  1       21 0.17536662E-01 0.40287993E+03</pdfrwt>
<totfact> 0.10559067E+05</totfact>
</mgrwt>
</event>
<event>
 6    0  0.1539497E-004  0.4295245E+03  0.7546771E-02  0.1034010E+00
         21   -1    0    0  502  501  0.00000000000E+00  0.00000000000E+00  0.26771132544E+03  0.26771132544E+03  0.00000000000E+00 0. -1.
         21   -1    0    0  501  502 -0.00000000000E+00 -0.00000000000E+00 -0.17228569750E+03  0.17228569750E+03  0.00000000000E+00 0. -1.
      99925    2    1    2    0    0 -0.33977011305E+02  0.18567115472E+02 -0.18332007645E+02  0.26653958485E+03  0.26307434826E+03 0.  0.
         25    1    3    3    0    0 -0.35811447424E+02 -0.19200612774E+00  0.25631384402E+02  0.13261588366E+03  0.12509000000E+03 0.  0.
         25    1    1    2    0    0  0.33977011305E+02 -0.18567115472E+02  0.11375763559E+03  0.17345743809E+03  0.12509000000E+03 0.  0.
         25    1    3    3    0    0  0.18344361183E+01  0.18759121600E+02 -0.43963392047E+02  0.13392370119E+03  0.12509000000E+03 0.  0.
<mgrwt>
<rscale>  2 0.42952454E+03</rscale>
<asrwt>0</asrwt>
<pdfrwt beam="1">  1       21 0.39369313E-01 0.42952454E+03</pdfrwt>
<pdfrwt beam="2">  1       21 0.25336132E-01 0.42952454E+03</pdfrwt>
<totfact> 0.85803598E+04</totfact>
</mgrwt>
</event>
<event>
 6    0  0.1539497E-004  0.5050561E+03  0.7546771E-02  0.1012468E+00
         21   -1    0    0  502  501  0.00000000000E+00  0.00000000000E+00  0.58494901508E+02  0.58494901508E+02  0.00000000000E+00 0. -1.
         21   -1    0    0  501  502 -0.00000000000E+00 -0.00000000000E+00 -0.10901876243E+04  0.10901876243E+04  0.00000000000E+00 0. -1.
      99925    2    1    2    0    0 -0.12455608910E+03 -0.86893846967E+02 -0.54684076948E+03  0.62542954235E+03  0.26279749865E+03 0.  0.
         25    1    1    2    0    0  0.12455608910E+03  0.86893846967E+02 -0.48485195328E+03  0.52325298343E+03  0.12509000000E+03 0.  0.
         25    1    3    3    0    0 -0.29009055664E+02 -0.36503836715E+02 -0.30005896067E+03  0.32841580867E+03  0.12509000000E+03 0.  0.
         25    1    3    3    0    0 -0.95547033437E+02 -0.50390010252E+02 -0.24678180882E+03  0.29701373368E+03  0.12509000000E+03 0.  0.
<mgrwt>
<rscale>  2 0.50505611E+03</rscale>
<asrwt>0</asrwt>
<pdfrwt beam="1">  1       21 0.86021913E-02 0.50505611E+03</pdfrwt>
<pdfrwt beam="2">  1       21 0.16032171E+00 0.50505611E+03</pdfrwt>
<totfact> 0.23315498E+04</totfact>
</mgrwt>
</event>
<event>
 6    0  0.1539497E-004  0.4161286E+03  0.7546771E-02  0.1038334E+00
         21   -1    0    0  502  501  0.00000000000E+00  0.00000000000E+00  0.75569127061E+03  0.75569127061E+03  0.00000000000E+00 0. -1.
         21   -1    0    0  501  502 -0.00000000000E+00 -0.00000000000E+00 -0.57286291154E+02  0.57286291154E+02  0.00000000000E+00 0. -1.
      99925    2    1    2    0    0 -0.54789833010E+02  0.36355918962E+02  0.40594258249E+03  0.48816155172E+03  0.26303733889E+03 0.  0.
         25    1    3    3    0    0 -0.92207249886E+01  0.33673289849E+02  0.25980161000E+03  0.29045360538E+03  0.12509000000E+03 0.  0.
         25    1    3    3    0    0 -0.45569108021E+02  0.26826291126E+01  0.14614097249E+03  0.19770794634E+03  0.12509000000E+03 0.  0.
         25    1    1    2    0    0  0.54789833010E+02 -0.36355918962E+02  0.29246239697E+03  0.32481601005E+03  0.12509000000E+03 0.  0.
<mgrwt>
<rscale>  2 0.41612859E+03</rscale>
<asrwt>0</asrwt>
<pdfrwt beam="1">  1       21 0.11113106E+00 0.41612859E+03</pdfrwt>
<pdfrwt beam="2">  1       21 0.84244550E-02 0.41612859E+03</pdfrwt>
<totfact> 0.64744187E+04</totfact>
</mgrwt>
</event>
<event>
 6    0  0.1539497E-004  0.4035301E+03  0.7546771E-02  0.1042564E+00
         21   -1    0    0  502  501  0.00000000000E+00  0.00000000000E+00  0.84299073038E+03  0.84299073038E+03  0.00000000000E+00 0.  1.
         21   -1    0    0  501  502 -0.00000000000E+00 -0.00000000000E+00 -0.48291315928E+02  0.48291315928E+02  0.00000000000E+00 0.  1.
      99925    2    1    2    0    0  0.12013231730E+02 -0.24991305397E+02  0.43103520826E+03  0.50570709115E+03  0.26301982472E+03 0.  0.
         25    1    1    2    0    0 -0.12013231730E+02  0.24991305397E+02  0.36366420618E+03  0.38557495515E+03  0.12509000000E+03 0.  0.
         25    1    3    3    0    0 -0.32834887825E+02 -0.41961667642E+01  0.19466195065E+03  0.23374456315E+03  0.12509000000E+03 0.  0.
         25    1    3    3    0    0  0.44848119554E+02 -0.20795138633E+02  0.23637325762E+03  0.27196252800E+03  0.12509000000E+03 0.  0.
<mgrwt>
<rscale>  2 0.40353008E+03</rscale>
<asrwt>0</asrwt>
<pdfrwt beam="1">  1       21 0.12396922E+00 0.40353008E+03</pdfrwt>
<pdfrwt beam="2">  1       21 0.71016647E-02 0.40353008E+03</pdfrwt>
<totfact> 0.66691896E+04</totfact>
</mgrwt>
</event>
<event>
 6    0  0.1539497E-004  0.4177928E+03  0.7546771E-02  0.1037787E+00
         21   -1    0    0  502  501  0.00000000000E+00  0.00000000000E+00  0.97103596829E+02  0.97103596829E+02  0.00000000000E+00 0. -1.
         21   -1    0    0  501  502 -0.00000000000E+00 -0.00000000000E+00 -0.44939338865E+03  0.44939338865E+03  0.00000000000E+00 0. -1.
      99925    2    1    2    0    0 -0.31138255001E+02 -0.34945239850E+02 -0.15687830532E+03  0.30980326382E+03  0.26301425605E+03 0.  0.
         25    1    3    3    0    0 -0.50474457897E+02 -0.25763891079E+02 -0.10425054031E+03  0.17241558003E+03  0.12509000000E+03 0.  0.
         25    1    3    3    0    0  0.19336202896E+02 -0.91813487711E+01 -0.52627765007E+02  0.13738768379E+03  0.12509000000E+03 0.  0.
         25    1    1    2    0    0  0.31138255001E+02  0.34945239850E+02 -0.19541148651E+03  0.23669372166E+03  0.12509000000E+03 0.  0.
<mgrwt>
<rscale>  2 0.41779284E+03</rscale>
<asrwt>0</asrwt>
<pdfrwt beam="1">  1       21 0.14279941E-01 0.41779284E+03</pdfrwt>
<pdfrwt beam="2">  1       21 0.66087261E-01 0.41779284E+03</pdfrwt>
<totfact> 0.84310980E+04</totfact>
</mgrwt>
</event>
<event>
 6    0  0.1539497E-004  0.4027875E+03  0.7546771E-02  0.1042819E+00
         21   -1    0    0  502  501  0.00000000000E+00  0.00000000000E+00  0.13093497374E+04  0.13093497374E+04  0.00000000000E+00 0. -1.
         21   -1    0    0  501  502 -0.00000000000E+00 -0.00000000000E+00 -0.30976786313E+02  0.30976786313E+02  0.00000000000E+00 0. -1.
      99925    2    1    2    0    0  0.46323675512E+02 -0.14679172355E+02  0.89743865251E+03  0.93644558959E+03  0.26300731214E+03 0.  0.
         25    1    3    3    0    0  0.13803428487E+02  0.32314159904E+02  0.43720568418E+03  0.45610421830E+03  0.12509000000E+03 0.  0.
         25    1    1    2    0    0 -0.46323675512E+02  0.14679172355E+02  0.38093429863E+03  0.40388093417E+03  0.12509000000E+03 0.  0.
         25    1    3    3    0    0  0.32520247025E+02 -0.46993332260E+02  0.46023296833E+03  0.48034137130E+03  0.12509000000E+03 0.  0.
<mgrwt>
<rscale>  2 0.40278752E+03</rscale>
<asrwt>0</asrwt>
<pdfrwt beam="1">  1       21 0.19255139E+00 0.40278752E+03</pdfrwt>
<pdfrwt beam="2">  1       21 0.45554106E-02 0.40278752E+03</pdfrwt>
<totfact> 0.42924006E+04</totfact>
</mgrwt>
</event>
<event>
 6    0  0.1539497E-004  0.3936108E+03  0.7546771E-02  0.1046015E+00
         21   -1    0    0  502  501  0.00000000000E+00  0.00000000000E+00  0.13415915030E+03  0.13415915030E+03  0.00000000000E+00 0.  1.
         21   -1    0    0  501  502 -0.00000000000E+00 -0.00000000000E+00 -0.28870464349E+03  0.28870464349E+03  0.00000000000E+00 0.  1.
      99925    2    1    2    0    0 -0.84920427444E+01 -0.16934644466E+02 -0.77856926727E+02  0.27491940796E+03  0.26298304672E+03 0.  0.
         25    1    3    3    0    0 -0.16723554553E+02 -0.25415526004E+02 -0.75515415807E+02  0.14925050205E+03  0.12509000000E+03 0.  0.
         25    1    1    2    0    0  0.84920427444E+01  0.16934644466E+02 -0.76688566467E+02  0.14794438583E+03  0.12509000000E+03 0.  0.
         25    1    3    3    0    0  0.82315118083E+01  0.84808815382E+01 -0.23415109191E+01  0.12566890591E+03  0.12509000000E+03 0.  0.
<mgrwt>
<rscale>  2 0.39361082E+03</rscale>
<asrwt>0</asrwt>
<pdfrwt beam="1">  1       21 0.19729287E-01 0.39361082E+03</pdfrwt>
<pdfrwt beam="2">  1       21 0.42456564E-01 0.39361082E+03</pdfrwt>
<totfact> 0.11957391E+05</totfact>
</mgrwt>
</event>
<event>
 6    0  0.1539497E-004  0.4063755E+03  0.7546771E-02  0.1041594E+00
         21   -1    0    0  502  501  0.00000000000E+00  0.00000000000E+00  0.82691964844E+03  0.82691964844E+03  0.00000000000E+00 0. -1.
         21   -1    0    0  501  502 -0.00000000000E+00 -0.00000000000E+00 -0.49926569126E+02  0.49926569126E+02  0.00000000000E+00 0. -1.
      99925    2    1    2    0    0 -0.50132572315E+02  0.13341677659E+02  0.46471487813E+03  0.53646928209E+03  0.26296025841E+03 0.  0.
         25    1    3    3    0    0 -0.49972054006E+02  0.38836688564E+02  0.25296651608E+03  0.28921455862E+03  0.12509000000E+03 0.  0.
         25    1    3    3    0    0 -0.16051830830E+00 -0.25495010906E+02  0.21174836205E+03  0.24725472347E+03  0.12509000000E+03 0.  0.
         25    1    1    2    0    0  0.50132572315E+02 -0.13341677659E+02  0.31227820118E+03  0.34037693547E+03  0.12509000000E+03 0.  0.
<mgrwt>
<rscale>  2 0.40637550E+03</rscale>
<asrwt>0</asrwt>
<pdfrwt beam="1">  1       21 0.12160582E+00 0.40637550E+03</pdfrwt>
<pdfrwt beam="2">  1       21 0.73421430E-02 0.40637550E+03</pdfrwt>
<totfact> 0.66020841E+04</totfact>
</mgrwt>
</event>
<event>
 6    0  0.1539497E-004  0.4181650E+03  0.7546771E-02  0.1037665E+00
         21   -1    0    0  502  501  0.00000000000E+00  0.00000000000E+00  0.87614314733E+02  0.87614314733E+02  0.00000000000E+00 0.  1.
         21   -1    0    0  501  502 -0.00000000000E+00 -0.00000000000E+00 -0.49895385856E+03  0.49895385856E+03  0.00000000000E+00 0.  1.
      99925    2    1    2    0    0  0.71747607489E+02 -0.15550112868E+02 -0.27398591498E+03  0.38681068871E+03  0.26299182896E+03 0.  0.
         25    1    1    2    0    0 -0.71747607489E+02  0.15550112868E+02 -0.13735362884E+03  0.19975748458E+03  0.12509000000E+03 0.  0.
         25    1    3    3    0    0  0.71684352631E+02 -0.10059420637E+02 -0.17651920152E+03  0.22813674618E+03  0.12509000000E+03 0.  0.
         25    1    3    3    0    0  0.63254858430E-01 -0.54906922311E+01 -0.97466713467E+02  0.15867394252E+03  0.12509000000E+03 0.  0.
<mgrwt>
<rscale>  2 0.41816504E+03</rscale>
<asrwt>0</asrwt>
<pdfrwt beam="1">  1       21 0.12884458E-01 0.41816504E+03</pdfrwt>
<pdfrwt beam="2">  1       21 0.73375568E-01 0.41816504E+03</pdfrwt>
<totfact> 0.80513791E+04</totfact>
</mgrwt>
</event>
<event>
 6    0  0.1539497E-004  0.4587963E+03  0.7546771E-02  0.1025131E+00
         21   -1    0    0  502  501  0.00000000000E+00  0.00000000000E+00  0.87059494469E+02  0.87059494469E+02  0.00000000000E+00 0. -1.
         21   -1    0    0  501  502 -0.00000000000E+00 -0.00000000000E+00 -0.60445455826E+03  0.60445455826E+03  0.00000000000E+00 0. -1.
      99925    2    1    2    0    0 -0.30258722749E+02  0.11220752255E+03 -0.30858160928E+03  0.42177958087E+03  0.26300054532E+03 0.  0.
         25    1    1    2    0    0  0.30258722749E+02 -0.11220752255E+03 -0.20881345452E+03  0.26973447185E+03  0.12509000000E+03 0.  0.
         25    1    3    3    0    0 -0.20271594983E+02  0.99885517153E+02 -0.16807854689E+03  0.23299347657E+03  0.12509000000E+03 0.  0.
         25    1    3    3    0    0 -0.99871277662E+01  0.12322005400E+02 -0.14050306239E+03  0.18878610430E+03  0.12509000000E+03 0.  0.
<mgrwt>
<rscale>  2 0.45879629E+03</rscale>
<asrwt>0</asrwt>
<pdfrwt beam="1">  1       21 0.12802867E-01 0.45879629E+03</pdfrwt>
<pdfrwt beam="2">  1       21 0.88890378E-01 0.45879629E+03</pdfrwt>
<totfact> 0.51800764E+04</totfact>
</mgrwt>
</event>
<event>
 6    0  0.1539497E-004  0.5308673E+03  0.7546771E-02  0.1006022E+00
         21   -1    0    0  502  501  0.00000000000E+00  0.00000000000E+00  0.40686352355E+03  0.40686352355E+03  0.00000000000E+00 0. -1.
         21   -1    0    0  501  502 -0.00000000000E+00 -0.00000000000E+00 -0.17316625606E+03  0.17316625606E+03  0.00000000000E+00 0. -1.
      99925    2    1    2    0    0  0.13399801101E+03  0.10788812482E+03  0.17337410946E+03  0.35893770393E+03  0.26302543420E+03 0.  0.
         25    1    3    3    0    0  0.38178620414E+02  0.58133997430E+02  0.11529784286E+03  0.18378865412E+03  0.12509000000E+03 0.  0.
         25    1    3    3    0    0  0.95819390600E+02  0.49754127388E+02  0.58076266600E+02  0.17514904981E+03  0.12509000000E+03 0.  0.
         25    1    1    2    0    0 -0.13399801101E+03 -0.10788812482E+03  0.60323158031E+02  0.22109207568E+03  0.12509000000E+03 0.  0.
<mgrwt>
<rscale>  2 0.53086734E+03</rscale>
<asrwt>0</asrwt>
<pdfrwt beam="1">  1       21 0.59832871E-01 0.53086734E+03</pdfrwt>
<pdfrwt beam="2">  1       21 0.25465626E-01 0.53086734E+03</pdfrwt>
<totfact> 0.34243686E+04</totfact>
</mgrwt>
</event>
<event>
 6    0  0.1539497E-004  0.4192556E+03  0.7546771E-02  0.1037309E+00
         21   -1    0    0  502  501  0.00000000000E+00  0.00000000000E+00  0.51979211381E+02  0.51979211381E+02  0.00000000000E+00 0.  1.
         21   -1    0    0  501  502 -0.00000000000E+00 -0.00000000000E+00 -0.84541143374E+03  0.84541143374E+03  0.00000000000E+00 0.  1.
      99925    2    1    2    0    0  0.70737856142E+02  0.95482441001E+01 -0.46866310251E+03  0.54211961820E+03  0.26297065147E+03 0.  0.
         25    1    3    3    0    0  0.42625522555E+02 -0.33257533199E+02 -0.21156133778E+03  0.25165195495E+03  0.12509000000E+03 0.  0.
         25    1    3    3    0    0  0.28112333587E+02  0.42805777299E+02 -0.25710176472E+03  0.29046766325E+03  0.12509000000E+03 0.  0.
         25    1    1    2    0    0 -0.70737856142E+02 -0.95482441001E+01 -0.32476911985E+03  0.35527102692E+03  0.12509000000E+03 0.  0.
<mgrwt>
<rscale>  2 0.41925562E+03</rscale>
<asrwt>0</asrwt>
<pdfrwt beam="1">  1       21 0.76440018E-02 0.41925562E+03</pdfrwt>
<pdfrwt beam="2">  1       21 0.12432521E+00 0.41925562E+03</pdfrwt>
<totfact> 0.57930928E+04</totfact>
</mgrwt>
</event>
<event>
 6    0  0.1539497E-004  0.4246211E+03  0.7546771E-02  0.1035573E+00
         21   -1    0    0  502  501  0.00000000000E+00  0.00000000000E+00  0.19592136614E+03  0.19592136614E+03  0.00000000000E+00 0. -1.
         21   -1    0    0  501  502 -0.00000000000E+00 -0.00000000000E+00 -0.23007076410E+03  0.23007076410E+03  0.00000000000E+00 0. -1.
      99925    2    1    2    0    0  0.21167309772E+00 -0.48726841655E+02  0.43372891444E+02  0.27097095956E+03  0.26300133708E+03 0.  0.
         25    1    1    2    0    0 -0.21167309772E+00  0.48726841655E+02 -0.77522289402E+02  0.15502117067E+03  0.12509000000E+03 0.  0.
         25    1    3    3    0    0 -0.39692113684E+02 -0.31486179101E+02  0.25387930791E+02  0.13732770475E+03  0.12509000000E+03 0.  0.
         25    1    3    3    0    0  0.39903786782E+02 -0.17240662554E+02  0.17984960653E+02  0.13364325480E+03  0.12509000000E+03 0.  0.
<mgrwt>
<rscale>  2 0.42462114E+03</rscale>
<asrwt>0</asrwt>
<pdfrwt beam="1">  1       21 0.28811966E-01 0.42462114E+03</pdfrwt>
<pdfrwt beam="2">  1       21 0.33833936E-01 0.42462114E+03</pdfrwt>
<totfact> 0.90822395E+04</totfact>
</mgrwt>
</event>
<event>
 6    0  0.1539497E-004  0.4250296E+03  0.7546771E-02  0.1035442E+00
         21   -1    0    0  502  501  0.00000000000E+00  0.00000000000E+00  0.58633551455E+02  0.58633551455E+02  0.00000000000E+00 0. -1.
         21   -1    0    0  501  502 -0.00000000000E+00 -0.00000000000E+00 -0.77025075210E+03  0.77025075210E+03  0.00000000000E+00 0. -1.
      99925    2    1    2    0    0 -0.19733965470E+02 -0.54559997690E+02 -0.57358153188E+03  0.63377516309E+03  0.26326595089E+03 0.  0.
         25    1    3    3    0    0 -0.26613548666E+02 -0.76322097798E+01 -0.20582541126E+03  0.24244203352E+03  0.12509000000E+03 0.  0.
         25    1    1    2    0    0  0.19733965470E+02  0.54559997690E+02 -0.13803566876E+03  0.19510914046E+03  0.12509000000E+03 0.  0.
         25    1    3    3    0    0  0.68795831958E+01 -0.46927787910E+02 -0.36775612063E+03  0.39133312957E+03  0.12509000000E+03 0.  0.
<mgrwt>
<rscale>  2 0.42502959E+03</rscale>
<asrwt>0</asrwt>
<pdfrwt beam="1">  1       21 0.86225817E-02 0.42502959E+03</pdfrwt>
<pdfrwt beam="2">  1       21 0.11327216E+00 0.42502959E+03</pdfrwt>
<totfact> 0.59121592E+04</totfact>
</mgrwt>
</event>
<event>
 6    0  0.1539497E-004  0.3933995E+03  0.7546771E-02  0.1046089E+00
         21   -1    0    0  502  501  0.00000000000E+00  0.00000000000E+00  0.28801583289E+03  0.28801583289E+03  0.00000000000E+00 0. -1.
         21   -1    0    0  501  502 -0.00000000000E+00 -0.00000000000E+00 -0.13433562386E+03  0.13433562386E+03  0.00000000000E+00 0. -1.
      99925    2    1    2    0    0  0.36709335947E+01  0.45765123934E+01  0.71861249242E+02  0.27276445698E+03  0.26306271045E+03 0.  0.
         25    1    3    3    0    0  0.71439715821E+01  0.67139993835E+01 -0.55609193186E+01  0.12559675968E+03  0.12509000000E+03 0.  0.
         25    1    1    2    0    0 -0.36709335947E+01 -0.45765123934E+01  0.81818959790E+02  0.14958699977E+03  0.12509000000E+03 0.  0.
         25    1    3    3    0    0 -0.34730379875E+01 -0.21374869901E+01  0.77422168560E+02  0.14716769730E+03  0.12509000000E+03 0.  0.
<mgrwt>
<rscale>  2 0.39339947E+03</rscale>
<asrwt>0</asrwt>
<pdfrwt beam="1">  1       21 0.42355269E-01 0.39339947E+03</pdfrwt>
<pdfrwt beam="2">  1       21 0.19755239E-01 0.39339947E+03</pdfrwt>
<totfact> 0.11987297E+05</totfact>
</mgrwt>
</event>
<event>
 6    0  0.1539497E-004  0.4960692E+03  0.7546771E-02  0.1014810E+00
         21   -1    0    0  502  501  0.00000000000E+00  0.00000000000E+00  0.85486094975E+02  0.85486094975E+02  0.00000000000E+00 0.  1.
         21   -1    0    0  501  502 -0.00000000000E+00 -0.00000000000E+00 -0.71966280352E+03  0.71966280352E+03  0.00000000000E+00 0.  1.
      99925    2    1    2    0    0  0.10981227391E+03  0.99544254461E+02 -0.37178281027E+03  0.47885783204E+03  0.26289650282E+03 0.  0.
         25    1    1    2    0    0 -0.10981227391E+03 -0.99544254461E+02 -0.26239389828E+03  0.32629106646E+03  0.12509000000E+03 0.  0.
         25    1    3    3    0    0  0.64090229009E+02  0.66130584832E+02 -0.13823723066E+03  0.20793713412E+03  0.12509000000E+03 0.  0.
         25    1    3    3    0    0  0.45722044897E+02  0.33413669629E+02 -0.23354557961E+03  0.27092069792E+03  0.12509000000E+03 0.  0.
<mgrwt>
<rscale>  2 0.49606920E+03</rscale>
<asrwt>0</asrwt>
<pdfrwt beam="1">  1       21 0.12571484E-01 0.49606920E+03</pdfrwt>
<pdfrwt beam="2">  1       21 0.10583277E+00 0.49606920E+03</pdfrwt>
<totfact> 0.34851932E+04</totfact>
</mgrwt>
</event>
<event>
 6    0  0.1539497E-004  0.4132975E+03  0.7546771E-02  0.1039270E+00
         21   -1    0    0  502  501  0.00000000000E+00  0.00000000000E+00  0.79247861826E+03  0.79247861826E+03  0.00000000000E+00 0.  1.
         21   -1    0    0  501  502 -0.00000000000E+00 -0.00000000000E+00 -0.53886265546E+02  0.53886265546E+02  0.00000000000E+00 0.  1.
      99925    2    1    2    0    0 -0.13248110292E+02  0.59281399909E+02  0.42721715153E+03  0.50534901788E+03  0.26300824799E+03 0.  0.
         25    1    1    2    0    0  0.13248110292E+02 -0.59281399909E+02  0.31137520119E+03  0.34101586593E+03  0.12509000000E+03 0.  0.
         25    1    3    3    0    0 -0.44853663018E+02  0.34275529431E+02  0.19369216802E+03  0.23738329145E+03  0.12509000000E+03 0.  0.
         25    1    3    3    0    0  0.31605552726E+02  0.25005870477E+02  0.23352498351E+03  0.26796572643E+03  0.12509000000E+03 0.  0.
<mgrwt>
<rscale>  2 0.41329754E+03</rscale>
<asrwt>0</asrwt>
<pdfrwt beam="1">  1       21 0.11654097E+00 0.41329754E+03</pdfrwt>
<pdfrwt beam="2">  1       21 0.79244513E-02 0.41329754E+03</pdfrwt>
<totfact> 0.64145009E+04</totfact>
</mgrwt>
</event>
<event>
 6    0  0.1539497E-004  0.4463777E+03  0.7546771E-02  0.1028808E+00
         21   -1    0    0  502  501  0.00000000000E+00  0.00000000000E+00  0.27968124183E+03  0.27968124183E+03  0.00000000000E+00 0. -1.
         21   -1    0    0  501  502 -0.00000000000E+00 -0.00000000000E+00 -0.17810729236E+03  0.17810729236E+03  0.00000000000E+00 0. -1.
      99925    2    1    2    0    0 -0.19800833864E+02  0.10271785392E+03  0.55859581558E+02  0.28843581922E+03  0.26292945522E+03 0.  0.
         25    1    1    2    0    0  0.19800833864E+02 -0.10271785392E+03  0.45714367908E+02  0.16935271497E+03  0.12509000000E+03 0.  0.
         25    1    3    3    0    0 -0.88940996814E+01  0.92968431931E+02  0.19315507918E+02  0.15729854192E+03  0.12509000000E+03 0.  0.
         25    1    3    3    0    0 -0.10906734183E+02  0.97494219858E+01  0.36544073640E+02  0.13113727730E+03  0.12509000000E+03 0.  0.
<mgrwt>
<rscale>  2 0.44637773E+03</rscale>
<asrwt>0</asrwt>
<pdfrwt beam="1">  1       21 0.41129595E-01 0.44637773E+03</pdfrwt>
<pdfrwt beam="2">  1       21 0.26192249E-01 0.44637773E+03</pdfrwt>
<totfact> 0.73237193E+04</totfact>
</mgrwt>
</event>
<event>
 6    0  0.1539497E-004  0.4396875E+03  0.7546771E-02  0.1030843E+00
         21   -1    0    0  502  501  0.00000000000E+00  0.00000000000E+00  0.11887158852E+03  0.11887158852E+03  0.00000000000E+00 0. -1.
         21   -1    0    0  501  502 -0.00000000000E+00 -0.00000000000E+00 -0.40658394221E+03  0.40658394221E+03  0.00000000000E+00 0. -1.
      99925    2    1    2    0    0 -0.65476251770E+02  0.24801494990E+01 -0.96363411126E+02  0.28764212361E+03  0.26298059545E+03 0.  0.
         25    1    3    3    0    0 -0.64951508334E+02  0.23774627105E+02 -0.37576244319E+02  0.14779517437E+03  0.12509000000E+03 0.  0.
         25    1    3    3    0    0 -0.52474343528E+00 -0.21294477606E+02 -0.58787166807E+02  0.13984694925E+03  0.12509000000E+03 0.  0.
         25    1    1    2    0    0  0.65476251770E+02 -0.24801494990E+01 -0.19134894256E+03  0.23781340712E+03  0.12509000000E+03 0.  0.
<mgrwt>
<rscale>  2 0.43968752E+03</rscale>
<asrwt>0</asrwt>
<pdfrwt beam="1">  1       21 0.17481116E-01 0.43968752E+03</pdfrwt>
<pdfrwt beam="2">  1       21 0.59791755E-01 0.43968752E+03</pdfrwt>
<totfact> 0.71838672E+04</totfact>
</mgrwt>
</event>
<event>
 6    0  0.1539497E-004  0.3919013E+03  0.7546771E-02  0.1046621E+00
         21   -1    0    0  502  501  0.00000000000E+00  0.00000000000E+00  0.97988252040E+02  0.97988252040E+02  0.00000000000E+00 0. -1.
         21   -1    0    0  501  502 -0.00000000000E+00 -0.00000000000E+00 -0.39184960242E+03  0.39184960242E+03  0.00000000000E+00 0. -1.
      99925    2    1    2    0    0  0.18277607354E+02  0.17153556684E+02 -0.20397810804E+03  0.33377754307E+03  0.26300582553E+03 0.  0.
         25    1    3    3    0    0 -0.11289152116E+02  0.52288521131E+01 -0.56608942301E+02  0.13786539195E+03  0.12509000000E+03 0.  0.
         25    1    1    2    0    0 -0.18277607354E+02 -0.17153556684E+02 -0.89883242335E+02  0.15606031139E+03  0.12509000000E+03 0.  0.
         25    1    3    3    0    0  0.29566759470E+02  0.11924704571E+02 -0.14736916574E+03  0.19591215112E+03  0.12509000000E+03 0.  0.
<mgrwt>
<rscale>  2 0.39190130E+03</rscale>
<asrwt>0</asrwt>
<pdfrwt beam="1">  1       21 0.14410037E-01 0.39190130E+03</pdfrwt>
<pdfrwt beam="2">  1       21 0.57624941E-01 0.39190130E+03</pdfrwt>
<totfact> 0.11264766E+05</totfact>
</mgrwt>
</event>
<event>
 6    0  0.1539497E-004  0.3956991E+03  0.7546771E-02  0.1045279E+00
         21   -1    0    0  502  501  0.00000000000E+00  0.00000000000E+00  0.11136619078E+03  0.11136619078E+03  0.00000000000E+00 0.  1.
         21   -1    0    0  501  502 -0.00000000000E+00 -0.00000000000E+00 -0.35149313259E+03  0.35149313259E+03  0.00000000000E+00 0.  1.
      99925    2    1    2    0    0 -0.24107071289E+02  0.25614125544E+02 -0.15110271524E+03  0.30534724342E+03  0.26299747945E+03 0.  0.
         25    1    3    3    0    0 -0.34683527912E+02 -0.20521437182E+02 -0.69388676944E+02  0.14861484812E+03  0.12509000000E+03 0.  0.
         25    1    3    3    0    0  0.10576456623E+02  0.46135562726E+02 -0.81714038297E+02  0.15673239530E+03  0.12509000000E+03 0.  0.
         25    1    1    2    0    0  0.24107071289E+02 -0.25614125544E+02 -0.89024226568E+02  0.15751207995E+03  0.12509000000E+03 0.  0.
<mgrwt>
<rscale>  2 0.39569913E+03</rscale>
<asrwt>0</asrwt>
<pdfrwt beam="1">  1       21 0.16377381E-01 0.39569913E+03</pdfrwt>
<pdfrwt beam="2">  1       21 0.51690166E-01 0.39569913E+03</pdfrwt>
<totfact> 0.11215976E+05</totfact>
</mgrwt>
</event>
<event>
 6    0  0.1539497E-004  0.4461321E+03  0.7546771E-02  0.1028882E+00
         21   -1    0    0  502  501  0.00000000000E+00  0.00000000000E+00  0.12352415475E+04  0.12352415475E+04  0.00000000000E+00 0. -1.
         21   -1    0    0  501  502 -0.00000000000E+00 -0.00000000000E+00 -0.40282373160E+02  0.40282373160E+02  0.00000000000E+00 0. -1.
      99925    2    1    2    0    0  0.16024383368E+02  0.20771548788E+01  0.46236785108E+03  0.53215412678E+03  0.26295035559E+03 0.  0.
         25    1    3    3    0    0  0.23054623262E+02  0.23142620177E+01  0.15692615405E+03  0.20201533949E+03  0.12509000000E+03 0.  0.
         25    1    3    3    0    0 -0.70302398945E+01 -0.23710713888E+00  0.30544169702E+03  0.33013878729E+03  0.12509000000E+03 0.  0.
         25    1    1    2    0    0 -0.16024383368E+02 -0.20771548788E+01  0.73259132324E+03  0.74336979386E+03  0.12509000000E+03 0.  0.
<mgrwt>
<rscale>  2 0.44613209E+03</rscale>
<asrwt>0</asrwt>
<pdfrwt beam="1">  1       21 0.18165314E+00 0.44613209E+03</pdfrwt>
<pdfrwt beam="2">  1       21 0.59238792E-02 0.44613209E+03</pdfrwt>
<totfact> 0.31984067E+04</totfact>
</mgrwt>
</event>
<event>
 6    0  0.1539497E-004  0.4311843E+03  0.7546771E-02  0.1033487E+00
         21   -1    0    0  502  501  0.00000000000E+00  0.00000000000E+00  0.46324597959E+03  0.46324597959E+03  0.00000000000E+00 0.  1.
         21   -1    0    0  501  502 -0.00000000000E+00 -0.00000000000E+00 -0.10033539860E+03  0.10033539860E+03  0.00000000000E+00 0.  1.
      99925    2    1    2    0    0  0.71802486850E+02 -0.35201036174E+02  0.18244491286E+03  0.32989339060E+03  0.26296158059E+03 0.  0.
         25    1    3    3    0    0  0.43310514687E+02  0.10055463342E+02  0.12457911946E+03  0.18205597527E+03  0.12509000000E+03 0.  0.
         25    1    3    3    0    0  0.28491972162E+02 -0.45256499516E+02  0.57865793395E+02  0.14783741533E+03  0.12509000000E+03 0.  0.
         25    1    1    2    0    0 -0.71802486850E+02  0.35201036174E+02  0.18046566814E+03  0.23368798759E+03  0.12509000000E+03 0.  0.
<mgrwt>
<rscale>  2 0.43118428E+03</rscale>
<asrwt>0</asrwt>
<pdfrwt beam="1">  1       21 0.68124408E-01 0.43118428E+03</pdfrwt>
<pdfrwt beam="2">  1       21 0.14755206E-01 0.43118428E+03</pdfrwt>
<totfact> 0.73953724E+04</totfact>
</mgrwt>
</event>
<event>
 6    0  0.1539497E-004  0.4609150E+03  0.7546771E-02  0.1024516E+00
         21   -1    0    0  502  501  0.00000000000E+00  0.00000000000E+00  0.10329779181E+03  0.10329779181E+03  0.00000000000E+00 0. -1.
         21   -1    0    0  501  502 -0.00000000000E+00 -0.00000000000E+00 -0.51415100235E+03  0.51415100235E+03  0.00000000000E+00 0. -1.
      99925    2    1    2    0    0 -0.11327531439E+03  0.19680223093E+02 -0.29645624266E+03  0.41262501041E+03  0.26297240800E+03 0.  0.
         25    1    1    2    0    0  0.11327531439E+03 -0.19680223093E+02 -0.11439696789E+03  0.20482378376E+03  0.12509000000E+03 0.  0.
         25    1    3    3    0    0 -0.87405957845E+02 -0.14110097128E+02 -0.18093026499E+03  0.23711213633E+03  0.12509000000E+03 0.  0.
         25    1    3    3    0    0 -0.25869356545E+02  0.33790320221E+02 -0.11552597767E+03  0.17551287407E+03  0.12509000000E+03 0.  0.
<mgrwt>
<rscale>  2 0.46091502E+03</rscale>
<asrwt>0</asrwt>
<pdfrwt beam="1">  1       21 0.15190852E-01 0.46091502E+03</pdfrwt>
<pdfrwt beam="2">  1       21 0.75610442E-01 0.46091502E+03</pdfrwt>
<totfact> 0.55002177E+04</totfact>
</mgrwt>
</event>
<event>
 6    0  0.1539497E-004  0.4127523E+03  0.7546771E-02  0.1039451E+00
         21   -1    0    0  502  501  0.00000000000E+00  0.00000000000E+00  0.58099040876E+02  0.58099040876E+02  0.00000000000E+00 0.  1.
         21   -1    0    0  501  502 -0.00000000000E+00 -0.00000000000E+00 -0.73307760545E+03  0.73307760545E+03  0.00000000000E+00 0.  1.
      99925    2    1    2    0    0 -0.33044047287E+02 -0.13233492995E+02 -0.55155029850E+03  0.61187500282E+03  0.26251905245E+03 0.  0.
         25    1    3    3    0    0 -0.41964434105E+02 -0.32590128843E+02 -0.24646233953E+03  0.28145039196E+03  0.12509000000E+03 0.  0.
         25    1    1    2    0    0  0.33044047287E+02  0.13233492995E+02 -0.12342826607E+03  0.17930164350E+03  0.12509000000E+03 0.  0.
         25    1    3    3    0    0  0.89203868184E+01  0.19356635848E+02 -0.30508795897E+03  0.33042461085E+03  0.12509000000E+03 0.  0.
<mgrwt>
<rscale>  2 0.41275225E+03</rscale>
<asrwt>0</asrwt>
<pdfrwt beam="1">  1       21 0.85439774E-02 0.41275225E+03</pdfrwt>
<pdfrwt beam="2">  1       21 0.10780552E+00 0.41275225E+03</pdfrwt>
<totfact> 0.68127378E+04</totfact>
</mgrwt>
</event>
<event>
 6    0  0.1539497E-004  0.4389596E+03  0.7546771E-02  0.1031067E+00
         21   -1    0    0  502  501  0.00000000000E+00  0.00000000000E+00  0.57790087796E+03  0.57790087796E+03  0.00000000000E+00 0. -1.
         21   -1    0    0  501  502 -0.00000000000E+00 -0.00000000000E+00 -0.83355780405E+02  0.83355780405E+02  0.00000000000E+00 0. -1.
      99925    2    1    2    0    0 -0.73995849158E+02 -0.56552609935E+02  0.27384036847E+03  0.39101293703E+03  0.26311401736E+03 0.  0.
         25    1    3    3    0    0 -0.64727845885E+02 -0.28369217750E+02  0.18721945078E+03  0.23599393509E+03  0.12509000000E+03 0.  0.
         25    1    1    2    0    0  0.73995849158E+02  0.56552609935E+02  0.22070472908E+03  0.27024372134E+03  0.12509000000E+03 0.  0.
         25    1    3    3    0    0 -0.92680032739E+01 -0.28183392185E+02  0.86620917695E+02  0.15501900194E+03  0.12509000000E+03 0.  0.
<mgrwt>
<rscale>  2 0.43895958E+03</rscale>
<asrwt>0</asrwt>
<pdfrwt beam="1">  1       21 0.84985422E-01 0.43895958E+03</pdfrwt>
<pdfrwt beam="2">  1       21 0.12258203E-01 0.43895958E+03</pdfrwt>
<totfact> 0.62603061E+04</totfact>
</mgrwt>
</event>
<event>
 6    0  0.1539497E-004  0.4130493E+03  0.7546771E-02  0.1039353E+00
         21   -1    0    0  502  501  0.00000000000E+00  0.00000000000E+00  0.17871156399E+03  0.17871156399E+03  0.00000000000E+00 0. -1.
         21   -1    0    0  501  502 -0.00000000000E+00 -0.00000000000E+00 -0.23866630166E+03  0.23866630166E+03  0.00000000000E+00 0. -1.
      99925    2    1    2    0    0 -0.84048290290E+01  0.35468185890E+02  0.17399781914E+02  0.26585274179E+03  0.26276661611E+03 0.  0.
         25    1    3    3    0    0 -0.13297414047E+01 -0.41030169914E+01  0.42309429389E+02  0.13212190914E+03  0.12509000000E+03 0.  0.
         25    1    3    3    0    0 -0.70750876243E+01  0.39571202881E+02 -0.24909647475E+02  0.13373083264E+03  0.12509000000E+03 0.  0.
         25    1    1    2    0    0  0.84048290290E+01 -0.35468185890E+02 -0.77354519585E+02  0.15152512386E+03  0.12509000000E+03 0.  0.
<mgrwt>
<rscale>  2 0.41304929E+03</rscale>
<asrwt>0</asrwt>
<pdfrwt beam="1">  1       21 0.26281113E-01 0.41304929E+03</pdfrwt>
<pdfrwt beam="2">  1       21 0.35097985E-01 0.41304929E+03</pdfrwt>
<totfact> 0.10127232E+05</totfact>
</mgrwt>
</event>
<event>
 6    0  0.1539497E-004  0.4157035E+03  0.7546771E-02  0.1038474E+00
         21   -1    0    0  502  501  0.00000000000E+00  0.00000000000E+00  0.12728734050E+04  0.12728734050E+04  0.00000000000E+00 0. -1.
         21   -1    0    0  501  502 -0.00000000000E+00 -0.00000000000E+00 -0.33940805218E+02  0.33940805218E+02  0.00000000000E+00 0. -1.
      99925    2    1    2    0    0  0.40605633395E+02  0.42608235900E+01  0.63196370888E+03  0.68574600567E+03  0.26306364794E+03 0.  0.
         25    1    1    2    0    0 -0.40605633395E+02 -0.42608235900E+01  0.60696889092E+03  0.62106820457E+03  0.12509000000E+03 0.  0.
         25    1    3    3    0    0  0.34444578370E+02  0.32497648719E+02  0.38200115834E+03  0.40474055792E+03  0.12509000000E+03 0.  0.
         25    1    3    3    0    0  0.61610550253E+01 -0.28236825129E+02  0.24996255054E+03  0.28100544775E+03  0.12509000000E+03 0.  0.
<mgrwt>
<rscale>  2 0.41570349E+03</rscale>
<asrwt>0</asrwt>
<pdfrwt beam="1">  1       21 0.18718723E+00 0.41570349E+03</pdfrwt>
<pdfrwt beam="2">  1       21 0.49912957E-02 0.41570349E+03</pdfrwt>
<totfact> 0.39745978E+04</totfact>
</mgrwt>
</event>
<event>
 6    0  0.1539497E-004  0.4153187E+03  0.7546771E-02  0.1038601E+00
         21   -1    0    0  502  501  0.00000000000E+00  0.00000000000E+00  0.10189447827E+04  0.10189447827E+04  0.00000000000E+00 0. -1.
         21   -1    0    0  501  502 -0.00000000000E+00 -0.00000000000E+00 -0.42320649793E+02  0.42320649793E+02  0.00000000000E+00 0. -1.
      99925    2    1    2    0    0  0.46243321158E+02 -0.15075790356E+02  0.51274451096E+03  0.57836012504E+03  0.26311171869E+03 0.  0.
         25    1    3    3    0    0  0.23721580812E+02  0.72929357296E+01  0.17295502525E+03  0.21488799214E+03  0.12509000000E+03 0.  0.
         25    1    3    3    0    0  0.22521740346E+02 -0.22368726085E+02  0.33978948571E+03  0.36347213290E+03  0.12509000000E+03 0.  0.
         25    1    1    2    0    0 -0.46243321158E+02  0.15075790356E+02  0.46387962191E+03  0.48290530741E+03  0.12509000000E+03 0.  0.
<mgrwt>
<rscale>  2 0.41531870E+03</rscale>
<asrwt>0</asrwt>
<pdfrwt beam="1">  1       21 0.14984481E+00 0.41531870E+03</pdfrwt>
<pdfrwt beam="2">  1       21 0.62236256E-02 0.41531870E+03</pdfrwt>
<totfact> 0.50893648E+04</totfact>
</mgrwt>
</event>
<event>
 6    0  0.1539497E-004  0.3984103E+03  0.7546771E-02  0.1044332E+00
         21   -1    0    0  502  501  0.00000000000E+00  0.00000000000E+00  0.10273026649E+03  0.10273026649E+03  0.00000000000E+00 0. -1.
         21   -1    0    0  501  502 -0.00000000000E+00 -0.00000000000E+00 -0.38628038070E+03  0.38628038070E+03  0.00000000000E+00 0. -1.
      99925    2    1    2    0    0  0.37740255405E+02 -0.17543944204E+02 -0.20420491801E+03  0.33514289515E+03  0.26246713084E+03 0.  0.
         25    1    3    3    0    0  0.50516106496E+02  0.14457145771E+02 -0.11259396543E+03  0.17631164236E+03  0.12509000000E+03 0.  0.
         25    1    3    3    0    0 -0.12775851091E+02 -0.32001089975E+02 -0.91610952584E+02  0.15883125279E+03  0.12509000000E+03 0.  0.
         25    1    1    2    0    0 -0.37740255405E+02  0.17543944204E+02 -0.79345196205E+02  0.15386775204E+03  0.12509000000E+03 0.  0.
<mgrwt>
<rscale>  2 0.39841027E+03</rscale>
<asrwt>0</asrwt>
<pdfrwt beam="1">  1       21 0.15107392E-01 0.39841027E+03</pdfrwt>
<pdfrwt beam="2">  1       21 0.56805938E-01 0.39841027E+03</pdfrwt>
<totfact> 0.10633707E+05</totfact>
</mgrwt>
</event>
<event>
 6    0  0.1539497E-004  0.3947601E+03  0.7546771E-02  0.1045609E+00
         21   -1    0    0  502  501  0.00000000000E+00  0.00000000000E+00  0.44052370908E+03  0.44052370908E+03  0.00000000000E+00 0.  1.
         21   -1    0    0  501  502 -0.00000000000E+00 -0.00000000000E+00 -0.88437665235E+02  0.88437665235E+02  0.00000000000E+00 0.  1.
      99925    2    1    2    0    0 -0.31199189074E+02 -0.38927193574E+01  0.25404508683E+03  0.36694878216E+03  0.26291435854E+03 0.  0.
         25    1    3    3    0    0  0.17359864511E+02  0.15619963939E+02  0.10088714571E+03  0.16239172528E+03  0.12509000000E+03 0.  0.
         25    1    3    3    0    0 -0.48559053585E+02 -0.19512683296E+02  0.15315794112E+03  0.20455705688E+03  0.12509000000E+03 0.  0.
         25    1    1    2    0    0  0.31199189074E+02  0.38927193574E+01  0.98040957019E+02  0.16201259215E+03  0.12509000000E+03 0.  0.
<mgrwt>
<rscale>  2 0.39476012E+03</rscale>
<asrwt>0</asrwt>
<pdfrwt beam="1">  1       21 0.64782897E-01 0.39476012E+03</pdfrwt>
<pdfrwt beam="2">  1       21 0.13005539E-01 0.39476012E+03</pdfrwt>
<totfact> 0.10514736E+05</totfact>
</mgrwt>
</event>
<event>
 6    0  0.1539497E-004  0.5309010E+03  0.7546771E-02  0.1006014E+00
         21   -1    0    0  502  501  0.00000000000E+00  0.00000000000E+00  0.88186128424E+02  0.88186128424E+02  0.00000000000E+00 0.  1.
         21   -1    0    0  501  502 -0.00000000000E+00 -0.00000000000E+00 -0.79903693345E+03  0.79903693345E+03  0.00000000000E+00 0.  1.
      99925    2    1    2    0    0 -0.16100143869E+03 -0.55463490145E+02 -0.35593659297E+03  0.47417431413E+03  0.26296912359E+03 0.  0.
         25    1    3    3    0    0 -0.60502593912E+02 -0.41857441618E+02 -0.21937017620E+03  0.26302735902E+03  0.12509000000E+03 0.  0.
         25    1    3    3    0    0 -0.10049884478E+03 -0.13606048527E+02 -0.13656641677E+03  0.21114695510E+03  0.12509000000E+03 0.  0.
         25    1    1    2    0    0  0.16100143869E+03  0.55463490145E+02 -0.35491421205E+03  0.41304874775E+03  0.12509000000E+03 0.  0.
<mgrwt>
<rscale>  2 0.53090102E+03</rscale>
<asrwt>0</asrwt>
<pdfrwt beam="1">  1       21 0.12968548E-01 0.53090102E+03</pdfrwt>
<pdfrwt beam="2">  1       21 0.11750544E+00 0.53090102E+03</pdfrwt>
<totfact> 0.25156371E+04</totfact>
</mgrwt>
</event>
<event>
 6    0  0.1539497E-004  0.4908233E+03  0.7546771E-02  0.1016202E+00
         21   -1    0    0  502  501  0.00000000000E+00  0.00000000000E+00  0.27554019932E+03  0.27554019932E+03  0.00000000000E+00 0. -1.
         21   -1    0    0  501  502 -0.00000000000E+00 -0.00000000000E+00 -0.21857744515E+03  0.21857744515E+03  0.00000000000E+00 0. -1.
      99925    2    1    2    0    0  0.55543846809E+02  0.52361730157E+02  0.15793974118E+03  0.31615492448E+03  0.26302491275E+03 0.  0.
         25    1    3    3    0    0  0.21398376594E+02  0.44883814925E+02  0.12130807668E+03  0.18120597377E+03  0.12509000000E+03 0.  0.
         25    1    1    2    0    0 -0.55543846809E+02 -0.52361730157E+02 -0.10097698701E+03  0.17796272000E+03  0.12509000000E+03 0.  0.
         25    1    3    3    0    0  0.34145470215E+02  0.74779152324E+01  0.36631664497E+02  0.13494895070E+03  0.12509000000E+03 0.  0.
<mgrwt>
<rscale>  2 0.49082328E+03</rscale>
<asrwt>0</asrwt>
<pdfrwt beam="1">  1       21 0.40520618E-01 0.49082328E+03</pdfrwt>
<pdfrwt beam="2">  1       21 0.32143742E-01 0.49082328E+03</pdfrwt>
<totfact> 0.49903593E+04</totfact>
</mgrwt>
</event>
<event>
 6    0  0.1539497E-004  0.8048916E+03  0.7546771E-02  0.9552964E-01
         21   -1    0    0  502  501  0.00000000000E+00  0.00000000000E+00  0.99655910099E+03  0.99655910099E+03  0.00000000000E+00 0.  1.
         21   -1    0    0  501  502 -0.00000000000E+00 -0.00000000000E+00 -0.16252182755E+03  0.16252182755E+03  0.00000000000E+00 0.  1.
      99925    2    1    2    0    0 -0.27565373538E+03 -0.49696585272E+01  0.14713669973E+03  0.40842149472E+03  0.26296241101E+03 0.  0.
         25    1    1    2    0    0  0.27565373538E+03  0.49696585272E+01  0.68690057371E+03  0.75065943383E+03  0.12509000000E+03 0.  0.
         25    1    3    3    0    0 -0.12698319553E+03 -0.41148748283E+02  0.80393472189E+02  0.19982134496E+03  0.12509000000E+03 0.  0.
         25    1    3    3    0    0 -0.14867053985E+03  0.36179089756E+02  0.66743227537E+02  0.20860014975E+03  0.12509000000E+03 0.  0.
<mgrwt>
<rscale>  2 0.80489156E+03</rscale>
<asrwt>0</asrwt>
<pdfrwt beam="1">  1       21 0.14655281E+00 0.80489156E+03</pdfrwt>
<pdfrwt beam="2">  1       21 0.23900269E-01 0.80489156E+03</pdfrwt>
<totfact> 0.41626699E+03</totfact>
</mgrwt>
</event>
<event>
 6    0  0.1539497E-004  0.5031885E+03  0.7546771E-02  0.1012950E+00
         21   -1    0    0  502  501  0.00000000000E+00  0.00000000000E+00  0.38879682378E+03  0.38879682378E+03  0.00000000000E+00 0. -1.
         21   -1    0    0  501  502 -0.00000000000E+00 -0.00000000000E+00 -0.16280908719E+03  0.16280908719E+03  0.00000000000E+00 0. -1.
      99925    2    1    2    0    0 -0.24557426603E+02  0.98526904810E+01 -0.29462170421E+02  0.26594473789E+03  0.26297992587E+03 0.  0.
         25    1    3    3    0    0  0.17970921815E+02 -0.19550051227E+02 -0.23331555321E+01  0.12789882818E+03  0.12509000000E+03 0.  0.
         25    1    1    2    0    0  0.24557426603E+02 -0.98526904810E+01  0.25544990701E+03  0.28566117308E+03  0.12509000000E+03 0.  0.
         25    1    3    3    0    0 -0.42528348418E+02  0.29402741708E+02 -0.27129014889E+02  0.13804590971E+03  0.12509000000E+03 0.  0.
<mgrwt>
<rscale>  2 0.50318846E+03</rscale>
<asrwt>0</asrwt>
<pdfrwt beam="1">  1       21 0.57176003E-01 0.50318846E+03</pdfrwt>
<pdfrwt beam="2">  1       21 0.23942513E-01 0.50318846E+03</pdfrwt>
<totfact> 0.42889640E+04</totfact>
</mgrwt>
</event>
<event>
 6    0  0.1539497E-004  0.3939037E+03  0.7546771E-02  0.1045911E+00
         21   -1    0    0  502  501  0.00000000000E+00  0.00000000000E+00  0.34964333536E+03  0.34964333536E+03  0.00000000000E+00 0.  1.
         21   -1    0    0  501  502 -0.00000000000E+00 -0.00000000000E+00 -0.11094173816E+03  0.11094173816E+03  0.00000000000E+00 0.  1.
      99925    2    1    2    0    0 -0.18759455671E+02 -0.15568033339E+02  0.18412643247E+03  0.32194800219E+03  0.26297089600E+03 0.  0.
         25    1    3    3    0    0 -0.16758067819E+02 -0.27635752330E+02  0.13538986655E+03  0.18714297130E+03  0.12509000000E+03 0.  0.
         25    1    1    2    0    0  0.18759455671E+02  0.15568033339E+02  0.54575164731E+02  0.13863707132E+03  0.12509000000E+03 0.  0.
         25    1    3    3    0    0 -0.20013878516E+01  0.12067718991E+02  0.48736565923E+02  0.13480503089E+03  0.12509000000E+03 0.  0.
<mgrwt>
<rscale>  2 0.39390374E+03</rscale>
<asrwt>0</asrwt>
<pdfrwt beam="1">  1       21 0.51418137E-01 0.39390374E+03</pdfrwt>
<pdfrwt beam="2">  1       21 0.16314962E-01 0.39390374E+03</pdfrwt>
<totfact> 0.11427990E+05</totfact>
</mgrwt>
</event>
<event>
 6    0  0.1539497E-004  0.4964163E+03  0.7546771E-02  0.1014719E+00
         21   -1    0    0  502  501  0.00000000000E+00  0.00000000000E+00  0.35553734356E+03  0.35553734356E+03  0.00000000000E+00 0. -1.
         21   -1    0    0  501  502 -0.00000000000E+00 -0.00000000000E+00 -0.17327936946E+03  0.17327936946E+03  0.00000000000E+00 0. -1.
      99925    2    1    2    0    0  0.18437453343E+02 -0.12510612344E+03  0.19416960104E+03  0.35054479498E+03  0.26303676077E+03 0.  0.
         25    1    3    3    0    0  0.66380276690E+01 -0.37612211468E+02  0.49333660618E+02  0.13978576477E+03  0.12509000000E+03 0.  0.
         25    1    3    3    0    0  0.11799425674E+02 -0.87493911967E+02  0.14483594042E+03  0.21075903021E+03  0.12509000000E+03 0.  0.
         25    1    1    2    0    0 -0.18437453343E+02  0.12510612344E+03 -0.11911626936E+02  0.17827191804E+03  0.12509000000E+03 0.  0.
<mgrwt>
<rscale>  2 0.49641630E+03</rscale>
<asrwt>0</asrwt>
<pdfrwt beam="1">  1       21 0.52284904E-01 0.49641630E+03</pdfrwt>
<pdfrwt beam="2">  1       21 0.25482260E-01 0.49641630E+03</pdfrwt>
<totfact> 0.46150383E+04</totfact>
</mgrwt>
</event>
<event>
 6    0  0.1539497E-004  0.4168908E+03  0.7546771E-02  0.1038083E+00
         21   -1    0    0  502  501  0.00000000000E+00  0.00000000000E+00  0.32259520451E+03  0.32259520451E+03  0.00000000000E+00 0.  1.
         21   -1    0    0  501  502 -0.00000000000E+00 -0.00000000000E+00 -0.13468731924E+03  0.13468731924E+03  0.00000000000E+00 0.  1.
      99925    2    1    2    0    0 -0.71181605525E+02  0.21158747229E+01  0.11057194735E+03  0.29388223830E+03  0.26281041942E+03 0.  0.
         25    1    1    2    0    0  0.71181605525E+02 -0.21158747229E+01  0.77335937928E+02  0.16340028545E+03  0.12509000000E+03 0.  0.
         25    1    3    3    0    0 -0.60645846222E+02  0.12308436176E+02  0.90531790177E+02  0.16635182415E+03  0.12509000000E+03 0.  0.
         25    1    3    3    0    0 -0.10535759303E+02 -0.10192561453E+02  0.20040157172E+02  0.12753041415E+03  0.12509000000E+03 0.  0.
<mgrwt>
<rscale>  2 0.41689079E+03</rscale>
<asrwt>0</asrwt>
<pdfrwt beam="1">  1       21 0.47440471E-01 0.41689079E+03</pdfrwt>
<pdfrwt beam="2">  1       21 0.19806959E-01 0.41689079E+03</pdfrwt>
<totfact> 0.93679895E+04</totfact>
</mgrwt>
</event>
<event>
 6    0  0.1539497E-004  0.4072968E+03  0.7546771E-02  0.1041282E+00
         21   -1    0    0  502  501  0.00000000000E+00  0.00000000000E+00  0.37554981836E+03  0.37554981836E+03  0.00000000000E+00 0.  1.
         21   -1    0    0  501  502 -0.00000000000E+00 -0.00000000000E+00 -0.11043187753E+03  0.11043187753E+03  0.00000000000E+00 0.  1.
      99925    2    1    2    0    0 -0.33162720454E+02 -0.42438843014E+02  0.20152742960E+03  0.33567506715E+03  0.26298978003E+03 0.  0.
         25    1    1    2    0    0  0.33162720454E+02  0.42438843014E+02  0.63590511230E+02  0.15030662874E+03  0.12509000000E+03 0.  0.
         25    1    3    3    0    0 -0.37140677328E+02  0.10683913854E+02  0.11696817052E+03  0.17556376888E+03  0.12509000000E+03 0.  0.
         25    1    3    3    0    0  0.39779568746E+01 -0.53122756868E+02  0.84559259082E+02  0.16011129827E+03  0.12509000000E+03 0.  0.
<mgrwt>
<rscale>  2 0.40729680E+03</rscale>
<asrwt>0</asrwt>
<pdfrwt beam="1">  1       21 0.55227914E-01 0.40729680E+03</pdfrwt>
<pdfrwt beam="2">  1       21 0.16239982E-01 0.40729680E+03</pdfrwt>
<totfact> 0.98626236E+04</totfact>
</mgrwt>
</event>
<event>
 6    0  0.1539497E-004  0.4246584E+03  0.7546771E-02  0.1035561E+00
         21   -1    0    0  502  501  0.00000000000E+00  0.00000000000E+00  0.50981628220E+03  0.50981628220E+03  0.00000000000E+00 0.  1.
         21   -1    0    0  501  502 -0.00000000000E+00 -0.00000000000E+00 -0.88431257428E+02  0.88431257428E+02  0.00000000000E+00 0.  1.
      99925    2    1    2    0    0 -0.62856923622E+02 -0.35622106653E+02  0.22542021059E+03  0.35479396330E+03  0.26428120955E+03 0.  0.
         25    1    3    3    0    0 -0.91368701600E+01 -0.12384470165E+02  0.60853036611E+02  0.13995519877E+03  0.12509000000E+03 0.  0.
         25    1    3    3    0    0 -0.53720053462E+02 -0.23237636488E+02  0.16456717398E+03  0.21483876453E+03  0.12509000000E+03 0.  0.
         25    1    1    2    0    0  0.62856923622E+02  0.35622106653E+02  0.19596481418E+03  0.24345357633E+03  0.12509000000E+03 0.  0.
<mgrwt>
<rscale>  2 0.42465843E+03</rscale>
<asrwt>0</asrwt>
<pdfrwt beam="1">  1       21 0.74972981E-01 0.42465843E+03</pdfrwt>
<pdfrwt beam="2">  1       21 0.13004597E-01 0.42465843E+03</pdfrwt>
<totfact> 0.75271258E+04</totfact>
</mgrwt>
</event>
<event>
 6    0  0.1539497E-004  0.4939623E+03  0.7546771E-02  0.1015367E+00
         21   -1    0    0  502  501  0.00000000000E+00  0.00000000000E+00  0.10089488383E+04  0.10089488383E+04  0.00000000000E+00 0. -1.
         21   -1    0    0  501  502 -0.00000000000E+00 -0.00000000000E+00 -0.60458658351E+02  0.60458658351E+02  0.00000000000E+00 0. -1.
      99925    2    1    2    0    0  0.37088784671E+02 -0.12198039882E+03  0.73574985001E+03  0.79162925465E+03  0.26285783111E+03 0.  0.
         25    1    3    3    0    0  0.88238696443E+01 -0.63794985436E+02  0.47348875201E+03  0.49395016674E+03  0.12509000000E+03 0.  0.
         25    1    3    3    0    0  0.28264915027E+02 -0.58185413382E+02  0.26226109800E+03  0.29767908790E+03  0.12509000000E+03 0.  0.
         25    1    1    2    0    0 -0.37088784671E+02  0.12198039882E+03  0.21274032990E+03  0.27777824197E+03  0.12509000000E+03 0.  0.
<mgrwt>
<rscale>  2 0.49396232E+03</rscale>
<asrwt>0</asrwt>
<pdfrwt beam="1">  1       21 0.14837482E+00 0.49396232E+03</pdfrwt>
<pdfrwt beam="2">  1       21 0.88909798E-02 0.49396232E+03</pdfrwt>
<totfact> 0.27283589E+04</totfact>
</mgrwt>
</event>
<event>
 6    0  0.1539497E-004  0.3983675E+03  0.7546771E-02  0.1044346E+00
         21   -1    0    0  502  501  0.00000000000E+00  0.00000000000E+00  0.42742255327E+02  0.42742255327E+02  0.00000000000E+00 0. -1.
         21   -1    0    0  501  502 -0.00000000000E+00 -0.00000000000E+00 -0.92821885432E+03  0.92821885432E+03  0.00000000000E+00 0. -1.
      99925    2    1    2    0    0 -0.35397471061E+02  0.34005328610E+01 -0.53598506424E+03  0.59805846077E+03  0.26292468279E+03 0.  0.
         25    1    1    2    0    0  0.35397471061E+02 -0.34005328610E+01 -0.34949153475E+03  0.37290264888E+03  0.12509000000E+03 0.  0.
         25    1    3    3    0    0  0.11251424011E+02 -0.25429069914E+02 -0.23952215489E+03  0.27164609867E+03  0.12509000000E+03 0.  0.
         25    1    3    3    0    0 -0.46648895072E+02  0.28829602775E+02 -0.29646290935E+03  0.32641236210E+03  0.12509000000E+03 0.  0.
<mgrwt>
<rscale>  2 0.39836751E+03</rscale>
<asrwt>0</asrwt>
<pdfrwt beam="1">  1       21 0.62856258E-02 0.39836751E+03</pdfrwt>
<pdfrwt beam="2">  1       21 0.13650277E+00 0.39836751E+03</pdfrwt>
<totfact> 0.64452719E+04</totfact>
</mgrwt>
</event>
<event>
 6    0  0.1539497E-004  0.3946906E+03  0.7546771E-02  0.1045634E+00
         21   -1    0    0  502  501  0.00000000000E+00  0.00000000000E+00  0.62857851381E+03  0.62857851381E+03  0.00000000000E+00 0.  1.
         21   -1    0    0  501  502 -0.00000000000E+00 -0.00000000000E+00 -0.61957534599E+02  0.61957534599E+02  0.00000000000E+00 0.  1.
      99925    2    1    2    0    0 -0.16523075579E+02  0.23070748597E+02  0.35087784140E+03  0.43954226148E+03  0.26320499344E+03 0.  0.
         25    1    3    3    0    0 -0.84820525522E+01  0.48497103865E+02  0.15021374985E+03  0.20158272010E+03  0.12509000000E+03 0.  0.
         25    1    1    2    0    0  0.16523075579E+02 -0.23070748597E+02  0.21574313781E+03  0.25099378694E+03  0.12509000000E+03 0.  0.
         25    1    3    3    0    0 -0.80410230268E+01 -0.25426355269E+02  0.20066409155E+03  0.23795954138E+03  0.12509000000E+03 0.  0.
<mgrwt>
<rscale>  2 0.39469064E+03</rscale>
<asrwt>0</asrwt>
<pdfrwt beam="1">  1       21 0.92438013E-01 0.39469064E+03</pdfrwt>
<pdfrwt beam="2">  1       21 0.91114025E-02 0.39469064E+03</pdfrwt>
<totfact> 0.88555452E+04</totfact>
</mgrwt>
</event>
<event>
 6    0  0.1539497E-004  0.4532144E+03  0.7546771E-02  0.1026768E+00
         21   -1    0    0  502  501  0.00000000000E+00  0.00000000000E+00  0.15050679786E+03  0.15050679786E+03  0.00000000000E+00 0.  1.
         21   -1    0    0  501  502 -0.00000000000E+00 -0.00000000000E+00 -0.34118612249E+03  0.34118612249E+03  0.00000000000E+00 0.  1.
      99925    2    1    2    0    0  0.11021423377E+03 -0.10674789456E+02 -0.13400876357E+03  0.31528376796E+03  0.26302923254E+03 0.  0.
         25    1    1    2    0    0 -0.11021423377E+03  0.10674789456E+02 -0.56670561065E+02  0.17640915239E+03  0.12509000000E+03 0.  0.
         25    1    3    3    0    0  0.86067117524E+02  0.20082868882E+02 -0.57981413366E+02  0.16376880881E+03  0.12509000000E+03 0.  0.
         25    1    3    3    0    0  0.24147116249E+02 -0.30757658338E+02 -0.76027350200E+02  0.15151495916E+03  0.12509000000E+03 0.  0.
<mgrwt>
<rscale>  2 0.45321443E+03</rscale>
<asrwt>0</asrwt>
<pdfrwt beam="1">  1       21 0.22133353E-01 0.45321443E+03</pdfrwt>
<pdfrwt beam="2">  1       21 0.50174429E-01 0.45321443E+03</pdfrwt>
<totfact> 0.66800167E+04</totfact>
</mgrwt>
</event>
<event>
 6    0  0.1539497E-004  0.4079143E+03  0.7546771E-02  0.1041073E+00
         21   -1    0    0  502  501  0.00000000000E+00  0.00000000000E+00  0.10630115176E+03  0.10630115176E+03  0.00000000000E+00 0. -1.
         21   -1    0    0  501  502 -0.00000000000E+00 -0.00000000000E+00 -0.39132709711E+03  0.39132709711E+03  0.00000000000E+00 0. -1.
      99925    2    1    2    0    0 -0.22775154277E+02  0.47912358116E+02 -0.15636826694E+03  0.31050634201E+03  0.26296169266E+03 0.  0.
         25    1    3    3    0    0 -0.28606034117E+02  0.12531301230E+02 -0.37533143377E+02  0.13428173238E+03  0.12509000000E+03 0.  0.
         25    1    3    3    0    0  0.58308798396E+01  0.35381056886E+02 -0.11883512356E+03  0.17622460963E+03  0.12509000000E+03 0.  0.
         25    1    1    2    0    0  0.22775154277E+02 -0.47912358116E+02 -0.12865767842E+03  0.18712190686E+03  0.12509000000E+03 0.  0.
<mgrwt>
<rscale>  2 0.40791431E+03</rscale>
<asrwt>0</asrwt>
<pdfrwt beam="1">  1       21 0.15632523E-01 0.40791431E+03</pdfrwt>
<pdfrwt beam="2">  1       21 0.57548101E-01 0.40791431E+03</pdfrwt>
<totfact> 0.96847159E+04</totfact>
</mgrwt>
</event>
<event>
 6    0  0.1539497E-004  0.4425283E+03  0.7546771E-02  0.1029974E+00
         21   -1    0    0  502  501  0.00000000000E+00  0.00000000000E+00  0.13698084101E+04  0.13698084101E+04  0.00000000000E+00 0.  1.
         21   -1    0    0  501  502 -0.00000000000E+00 -0.00000000000E+00 -0.35740638890E+02  0.35740638890E+02  0.00000000000E+00 0.  1.
      99925    2    1    2    0    0  0.38625381994E+02 -0.86674860199E+02  0.73871321584E+03  0.78983888485E+03  0.26295208165E+03 0.  0.
         25    1    3    3    0    0  0.40138183492E+02 -0.58648382479E+02  0.29889594848E+03  0.33171825795E+03  0.12509000000E+03 0.  0.
         25    1    1    2    0    0 -0.38625381994E+02  0.86674860199E+02  0.59535455538E+03  0.61571016414E+03  0.12509000000E+03 0.  0.
         25    1    3    3    0    0 -0.15128014980E+01 -0.28026477720E+02  0.43981726736E+03  0.45812062690E+03  0.12509000000E+03 0.  0.
<mgrwt>
<rscale>  2 0.44252832E+03</rscale>
<asrwt>0</asrwt>
<pdfrwt beam="1">  1       21 0.20144238E+00 0.44252832E+03</pdfrwt>
<pdfrwt beam="2">  1       21 0.52559772E-02 0.44252832E+03</pdfrwt>
<totfact> 0.28884153E+04</totfact>
</mgrwt>
</event>
<event>
 6    0  0.1539497E-004  0.4193540E+03  0.7546771E-02  0.1037277E+00
         21   -1    0    0  502  501  0.00000000000E+00  0.00000000000E+00  0.15399833056E+04  0.15399833056E+04  0.00000000000E+00 0.  1.
         21   -1    0    0  501  502 -0.00000000000E+00 -0.00000000000E+00 -0.28548656023E+02  0.28548656023E+02  0.00000000000E+00 0.  1.
      99925    2    1    2    0    0 -0.33552737145E+02  0.11727421932E+02  0.73913011261E+03  0.78535565675E+03  0.26307197804E+03 0.  0.
         25    1    3    3    0    0 -0.46746966927E+02  0.22357216505E+02  0.44858019150E+03  0.46856890673E+03  0.12509000000E+03 0.  0.
         25    1    1    2    0    0  0.33552737145E+02 -0.11727421932E+02  0.77230453696E+03  0.78317630487E+03  0.12509000000E+03 0.  0.
         25    1    3    3    0    0  0.13194229782E+02 -0.10629794573E+02  0.29054992111E+03  0.31678675002E+03  0.12509000000E+03 0.  0.
<mgrwt>
<rscale>  2 0.41935404E+03</rscale>
<asrwt>0</asrwt>
<pdfrwt beam="1">  1       21 0.22646808E+00 0.41935404E+03</pdfrwt>
<pdfrwt beam="2">  1       21 0.41983328E-02 0.41935404E+03</pdfrwt>
<totfact> 0.29511563E+04</totfact>
</mgrwt>
</event>
<event>
 6    0  0.1539497E-004  0.4079862E+03  0.7546771E-02  0.1041049E+00
         21   -1    0    0  502  501  0.00000000000E+00  0.00000000000E+00  0.15244407266E+04  0.15244407266E+04  0.00000000000E+00 0. -1.
         21   -1    0    0  501  502 -0.00000000000E+00 -0.00000000000E+00 -0.27297346712E+02  0.27297346712E+02  0.00000000000E+00 0. -1.
      99925    2    1    2    0    0 -0.18090974002E+02  0.54389312194E+02  0.93128742685E+03  0.96939285928E+03  0.26294631313E+03 0.  0.
         25    1    3    3    0    0  0.66779032876E+01  0.64418624157E+02  0.51261966512E+03  0.53162090130E+03  0.12509000000E+03 0.  0.
         25    1    1    2    0    0  0.18090974002E+02 -0.54389312194E+02  0.56585595306E+03  0.58234521406E+03  0.12509000000E+03 0.  0.
         25    1    3    3    0    0 -0.24768877289E+02 -0.10029311962E+02  0.41866776173E+03  0.43777195798E+03  0.12509000000E+03 0.  0.
<mgrwt>
<rscale>  2 0.40798621E+03</rscale>
<asrwt>0</asrwt>
<pdfrwt beam="1">  1       21 0.22418240E+00 0.40798621E+03</pdfrwt>
<pdfrwt beam="2">  1       21 0.40143167E-02 0.40798621E+03</pdfrwt>
<totfact> 0.33062561E+04</totfact>
</mgrwt>
</event>
<event>
 6    0  0.1539497E-004  0.3973674E+03  0.7546771E-02  0.1044695E+00
         21   -1    0    0  502  501  0.00000000000E+00  0.00000000000E+00  0.12628989886E+03  0.12628989886E+03  0.00000000000E+00 0. -1.
         21   -1    0    0  501  502 -0.00000000000E+00 -0.00000000000E+00 -0.31257614563E+03  0.31257614563E+03  0.00000000000E+00 0. -1.
      99925    2    1    2    0    0  0.13034828692E+01 -0.15476607162E+01 -0.16870932562E+03  0.31253097186E+03  0.26307542169E+03 0.  0.
         25    1    3    3    0    0 -0.94392031717E+01  0.29811640912E+02 -0.11372534825E+03  0.17192671527E+03  0.12509000000E+03 0.  0.
         25    1    3    3    0    0  0.10742686041E+02 -0.31359301629E+02 -0.54983977376E+02  0.14060425659E+03  0.12509000000E+03 0.  0.
         25    1    1    2    0    0 -0.13034828692E+01  0.15476607162E+01 -0.17576921149E+02  0.12633507264E+03  0.12509000000E+03 0.  0.
<mgrwt>
<rscale>  2 0.39736739E+03</rscale>
<asrwt>0</asrwt>
<pdfrwt beam="1">  1       21 0.18572044E-01 0.39736739E+03</pdfrwt>
<pdfrwt beam="2">  1       21 0.45967080E-01 0.39736739E+03</pdfrwt>
<totfact> 0.11351498E+05</totfact>
</mgrwt>
</event>
<event>
 6    0  0.1539497E-004  0.4517159E+03  0.7546771E-02  0.1027212E+00
         21   -1    0    0  502  501  0.00000000000E+00  0.00000000000E+00  0.85838111812E+02  0.85838111812E+02  0.00000000000E+00 0. -1.
         21   -1    0    0  501  502 -0.00000000000E+00 -0.00000000000E+00 -0.59427918873E+03  0.59427918873E+03  0.00000000000E+00 0. -1.
      99925    2    1    2    0    0  0.72600478053E+02 -0.13910988785E+01 -0.44547007259E+03  0.52236553334E+03  0.26296273553E+03 0.  0.
         25    1    3    3    0    0  0.59282027357E+02  0.23690915521E+02 -0.27754254680E+03  0.31105142924E+03  0.12509000000E+03 0.  0.
         25    1    1    2    0    0 -0.72600478053E+02  0.13910988785E+01 -0.62971004331E+02  0.15775176720E+03  0.12509000000E+03 0.  0.
         25    1    3    3    0    0  0.13318450695E+02 -0.25082014399E+02 -0.16792752578E+03  0.21131410410E+03  0.12509000000E+03 0.  0.
<mgrwt>
<rscale>  2 0.45171586E+03</rscale>
<asrwt>0</asrwt>
<pdfrwt beam="1">  1       21 0.12623252E-01 0.45171586E+03</pdfrwt>
<pdfrwt beam="2">  1       21 0.87393993E-01 0.45171586E+03</pdfrwt>
<totfact> 0.55415404E+04</totfact>
</mgrwt>
</event>
<event>
 6    0  0.1539497E-004  0.4334461E+03  0.7546771E-02  0.1032777E+00
         21   -1    0    0  502  501  0.00000000000E+00  0.00000000000E+00  0.20785114204E+03  0.20785114204E+03  0.00000000000E+00 0. -1.
         21   -1    0    0  501  502 -0.00000000000E+00 -0.00000000000E+00 -0.22597361154E+03  0.22597361154E+03  0.00000000000E+00 0. -1.
      99925    2    1    2    0    0  0.13074546681E+02  0.40872964202E+02  0.69269120864E+02  0.27531184830E+03  0.26297691864E+03 0.  0.
         25    1    3    3    0    0  0.14915175247E+02  0.57875472799E+02  0.21343144260E+02  0.14026785345E+03  0.12509000000E+03 0.  0.
         25    1    1    2    0    0 -0.13074546681E+02 -0.40872964202E+02 -0.87391590359E+02  0.15851290528E+03  0.12509000000E+03 0.  0.
         25    1    3    3    0    0 -0.18406285658E+01 -0.17002508597E+02  0.47925976604E+02  0.13504399485E+03  0.12509000000E+03 0.  0.
<mgrwt>
<rscale>  2 0.43344607E+03</rscale>
<asrwt>0</asrwt>
<pdfrwt beam="1">  1       21 0.30566345E-01 0.43344607E+03</pdfrwt>
<pdfrwt beam="2">  1       21 0.33231413E-01 0.43344607E+03</pdfrwt>
<totfact> 0.83605025E+04</totfact>
</mgrwt>
</event>
<event>
 6    0  0.1539497E-004  0.4524570E+03  0.7546771E-02  0.1026992E+00
         21   -1    0    0  502  501  0.00000000000E+00  0.00000000000E+00  0.16993952681E+02  0.16993952681E+02  0.00000000000E+00 0.  1.
         21   -1    0    0  501  502 -0.00000000000E+00 -0.00000000000E+00 -0.30116207383E+04  0.30116207383E+04  0.00000000000E+00 0.  1.
      99925    2    1    2    0    0 -0.10685413456E+03  0.22379794225E+02 -0.20165298328E+04  0.20365260767E+04  0.26292058394E+03 0.  0.
         25    1    3    3    0    0 -0.70998442366E+02  0.31223985662E+02 -0.84094838040E+03  0.85373145819E+03  0.12509000000E+03 0.  0.
         25    1    3    3    0    0 -0.35855692199E+02 -0.88441914370E+01 -0.11755814524E+04  0.11827946185E+04  0.12509000000E+03 0.  0.
         25    1    1    2    0    0  0.10685413456E+03 -0.22379794225E+02 -0.97809695279E+03  0.99208861420E+03  0.12509000000E+03 0.  0.
<mgrwt>
<rscale>  2 0.45245703E+03</rscale>
<asrwt>0</asrwt>
<pdfrwt beam="1">  1       21 0.24991098E-02 0.45245703E+03</pdfrwt>
<pdfrwt beam="2">  1       21 0.44288557E+00 0.45245703E+03</pdfrwt>
<totfact> 0.31531060E+03</totfact>
</mgrwt>
</event>
<event>
 6    0  0.1539497E-004  0.4158689E+03  0.7546771E-02  0.1038419E+00
         21   -1    0    0  502  501  0.00000000000E+00  0.00000000000E+00  0.59608458807E+02  0.59608458807E+02  0.00000000000E+00 0.  1.
         21   -1    0    0  501  502 -0.00000000000E+00 -0.00000000000E+00 -0.72534546558E+03  0.72534546558E+03  0.00000000000E+00 0.  1.
      99925    2    1    2    0    0 -0.23252819263E+02  0.54726504493E+02 -0.50690003014E+03  0.57421148171E+03  0.26312639792E+03 0.  0.
         25    1    1    2    0    0  0.23252819263E+02 -0.54726504493E+02 -0.15883697663E+03  0.21074244267E+03  0.12509000000E+03 0.  0.
         25    1    3    3    0    0  0.28044782311E+02  0.36663038520E+02 -0.24662874989E+03  0.28036393595E+03  0.12509000000E+03 0.  0.
         25    1    3    3    0    0 -0.51297601574E+02  0.18063465973E+02 -0.26027128025E+03  0.29384754577E+03  0.12509000000E+03 0.  0.
<mgrwt>
<rscale>  2 0.41586885E+03</rscale>
<asrwt>0</asrwt>
<pdfrwt beam="1">  1       21 0.87659500E-02 0.41586885E+03</pdfrwt>
<pdfrwt beam="2">  1       21 0.10666845E+00 0.41586885E+03</pdfrwt>
<totfact> 0.66764983E+04</totfact>
</mgrwt>
</event>
<event>
 6    0  0.1539497E-004  0.4287288E+03  0.7546771E-02  0.1034262E+00
         21   -1    0    0  502  501  0.00000000000E+00  0.00000000000E+00  0.48165530895E+02  0.48165530895E+02  0.00000000000E+00 0.  1.
         21   -1    0    0  501  502 -0.00000000000E+00 -0.00000000000E+00 -0.95404534878E+03  0.95404534878E+03  0.00000000000E+00 0.  1.
      99925    2    1    2    0    0 -0.61815112488E+02  0.15774952530E+02 -0.45297829378E+03  0.52804080903E+03  0.26375709300E+03 0.  0.
         25    1    3    3    0    0  0.11149407872E+02  0.21330113871E+01 -0.19750219228E+03  0.23405871718E+03  0.12509000000E+03 0.  0.
         25    1    1    2    0    0  0.61815112488E+02 -0.15774952530E+02 -0.45290152410E+03  0.47417007064E+03  0.12509000000E+03 0.  0.
         25    1    3    3    0    0 -0.72964520359E+02  0.13641941143E+02 -0.25547610150E+03  0.29398209185E+03  0.12509000000E+03 0.  0.
<mgrwt>
<rscale>  2 0.42872882E+03</rscale>
<asrwt>0</asrwt>
<pdfrwt beam="1">  1       21 0.70831670E-02 0.42872882E+03</pdfrwt>
<pdfrwt beam="2">  1       21 0.14030077E+00 0.42872882E+03</pdfrwt>
<totfact> 0.48244689E+04</totfact>
</mgrwt>
</event>
<event>
 6    0  0.1539497E-004  0.7395341E+03  0.7546771E-02  0.9651914E-01
         21   -1    0    0  502  501  0.00000000000E+00  0.00000000000E+00  0.49266461993E+03  0.49266461993E+03  0.00000000000E+00 0. -1.
         21   -1    0    0  501  502 -0.00000000000E+00 -0.00000000000E+00 -0.27752687187E+03  0.27752687187E+03  0.00000000000E+00 0. -1.
      99925    2    1    2    0    0  0.11714348900E+03  0.27618112626E+03  0.39836321082E+02  0.40089931760E+03  0.26293481865E+03 0.  0.
         25    1    3    3    0    0  0.66456154807E+02  0.88608371168E+02  0.45910548816E+01  0.16714200501E+03  0.12509000000E+03 0.  0.
         25    1    1    2    0    0 -0.11714348900E+03 -0.27618112626E+03  0.17530142698E+03  0.36929217420E+03  0.12509000000E+03 0.  0.
         25    1    3    3    0    0  0.50687334195E+02  0.18757275510E+03  0.35245266200E+02  0.23375731260E+03  0.12509000000E+03 0.  0.
<mgrwt>
<rscale>  2 0.73953410E+03</rscale>
<asrwt>0</asrwt>
<pdfrwt beam="1">  1       21 0.72450680E-01 0.73953410E+03</pdfrwt>
<pdfrwt beam="2">  1       21 0.40812775E-01 0.73953410E+03</pdfrwt>
<totfact> 0.82689681E+03</totfact>
</mgrwt>
</event>
<event>
 6    0  0.1539497E-004  0.4125688E+03  0.7546771E-02  0.1039512E+00
         21   -1    0    0  502  501  0.00000000000E+00  0.00000000000E+00  0.25505521729E+03  0.25505521729E+03  0.00000000000E+00 0.  1.
         21   -1    0    0  501  502 -0.00000000000E+00 -0.00000000000E+00 -0.16683940529E+03  0.16683940529E+03  0.00000000000E+00 0.  1.
      99925    2    1    2    0    0 -0.16745381079E+02 -0.50090548109E+02  0.18105151984E+02  0.26907942849E+03  0.26322323513E+03 0.  0.
         25    1    1    2    0    0  0.16745381079E+02  0.50090548109E+02  0.70110660013E+02  0.15281519409E+03  0.12509000000E+03 0.  0.
         25    1    3    3    0    0 -0.42219607682E+02 -0.96371682787E+01 -0.81160482721E+01  0.13262257962E+03  0.12509000000E+03 0.  0.
         25    1    3    3    0    0  0.25474226603E+02 -0.40453379830E+02  0.26221200256E+02  0.13645684887E+03  0.12509000000E+03 0.  0.
<mgrwt>
<rscale>  2 0.41256883E+03</rscale>
<asrwt>0</asrwt>
<pdfrwt beam="1">  1       21 0.37508120E-01 0.41256883E+03</pdfrwt>
<pdfrwt beam="2">  1       21 0.24535207E-01 0.41256883E+03</pdfrwt>
<totfact> 0.10117804E+05</totfact>
</mgrwt>
</event>
<event>
 6    0  0.1539497E-004  0.4652291E+03  0.7546771E-02  0.1023275E+00
         21   -1    0    0  502  501  0.00000000000E+00  0.00000000000E+00  0.48304815436E+03  0.48304815436E+03  0.00000000000E+00 0. -1.
         21   -1    0    0  501  502 -0.00000000000E+00 -0.00000000000E+00 -0.11201682552E+03  0.11201682552E+03  0.00000000000E+00 0. -1.
      99925    2    1    2    0    0 -0.12181330759E+03  0.25188664410E+01  0.24711937006E+03  0.38094700254E+03  0.26307377119E+03 0.  0.
         25    1    3    3    0    0 -0.10087735436E+03  0.18707498414E+02  0.14626363468E+03  0.21809807438E+03  0.12509000000E+03 0.  0.
         25    1    1    2    0    0  0.12181330759E+03 -0.25188664410E+01  0.12391195877E+03  0.21411797734E+03  0.12509000000E+03 0.  0.
         25    1    3    3    0    0 -0.20935953236E+02 -0.16188631973E+02  0.10085573539E+03  0.16284892816E+03  0.12509000000E+03 0.  0.
<mgrwt>
<rscale>  2 0.46522907E+03</rscale>
<asrwt>0</asrwt>
<pdfrwt beam="1">  1       21 0.71036493E-01 0.46522907E+03</pdfrwt>
<pdfrwt beam="2">  1       21 0.16473063E-01 0.46522907E+03</pdfrwt>
<totfact> 0.54446430E+04</totfact>
</mgrwt>
</event>
<event>
 6    0  0.1539497E-004  0.4136619E+03  0.7546771E-02  0.1039149E+00
         21   -1    0    0  502  501  0.00000000000E+00  0.00000000000E+00  0.34403449329E+03  0.34403449329E+03  0.00000000000E+00 0. -1.
         21   -1    0    0  501  502 -0.00000000000E+00 -0.00000000000E+00 -0.12434518343E+03  0.12434518343E+03  0.00000000000E+00 0. -1.
      99925    2    1    2    0    0  0.53679970914E+02  0.25473681322E+02  0.18034185002E+03  0.32441378349E+03  0.26304119893E+03 0.  0.
         25    1    3    3    0    0  0.57479199388E+02  0.31870689528E+02  0.71164563159E+02  0.15821347086E+03  0.12509000000E+03 0.  0.
         25    1    3    3    0    0 -0.37992284744E+01 -0.63970082069E+01  0.10917728686E+03  0.16620031263E+03  0.12509000000E+03 0.  0.
         25    1    1    2    0    0 -0.53679970914E+02 -0.25473681322E+02  0.39347459838E+02  0.14396589323E+03  0.12509000000E+03 0.  0.
<mgrwt>
<rscale>  2 0.41366185E+03</rscale>
<asrwt>0</asrwt>
<pdfrwt beam="1">  1       21 0.50593308E-01 0.41366185E+03</pdfrwt>
<pdfrwt beam="2">  1       21 0.18286056E-01 0.41366185E+03</pdfrwt>
<totfact> 0.95146345E+04</totfact>
</mgrwt>
</event>
<event>
 6    0  0.1539497E-004  0.4030729E+03  0.7546771E-02  0.1042721E+00
         21   -1    0    0  502  501  0.00000000000E+00  0.00000000000E+00  0.90548536007E+02  0.90548536007E+02  0.00000000000E+00 0. -1.
         21   -1    0    0  501  502 -0.00000000000E+00 -0.00000000000E+00 -0.44856534765E+03  0.44856534765E+03  0.00000000000E+00 0. -1.
      99925    2    1    2    0    0 -0.35624854626E+02  0.35670797877E+02 -0.24806718955E+03  0.36510824126E+03  0.26310674870E+03 0.  0.
         25    1    3    3    0    0 -0.26654711721E+02  0.25358588746E+02 -0.17933773057E+03  0.22172744843E+03  0.12509000000E+03 0.  0.
         25    1    1    2    0    0  0.35624854626E+02 -0.35670797877E+02 -0.10994962209E+03  0.17400564239E+03  0.12509000000E+03 0.  0.
         25    1    3    3    0    0 -0.89701429054E+01  0.10312209131E+02 -0.68729458987E+02  0.14338079283E+03  0.12509000000E+03 0.  0.
<mgrwt>
<rscale>  2 0.40307287E+03</rscale>
<asrwt>0</asrwt>
<pdfrwt beam="1">  1       21 0.13315961E-01 0.40307287E+03</pdfrwt>
<pdfrwt beam="2">  1       21 0.65965493E-01 0.40307287E+03</pdfrwt>
<totfact> 0.96570239E+04</totfact>
</mgrwt>
</event>
<event>
 6    0  0.1539497E-004  0.4720484E+03  0.7546771E-02  0.1021344E+00
         21   -1    0    0  502  501  0.00000000000E+00  0.00000000000E+00  0.45611067323E+03  0.45611067323E+03  0.00000000000E+00 0. -1.
         21   -1    0    0  501  502 -0.00000000000E+00 -0.00000000000E+00 -0.12213575057E+03  0.12213575057E+03  0.00000000000E+00 0. -1.
      99925    2    1    2    0    0  0.12809120350E+03 -0.55149467193E+01  0.20174491453E+03  0.35560308973E+03  0.26327699451E+03 0.  0.
         25    1    3    3    0    0  0.10774251830E+03 -0.73436844525E+01  0.10083218778E+03  0.19358981932E+03  0.12509000000E+03 0.  0.
         25    1    1    2    0    0 -0.12809120350E+03  0.55149467193E+01  0.13223000814E+03  0.22264333406E+03  0.12509000000E+03 0.  0.
         25    1    3    3    0    0  0.20348685201E+02  0.18287377332E+01  0.10091272675E+03  0.16201327042E+03  0.12509000000E+03 0.  0.
<mgrwt>
<rscale>  2 0.47204838E+03</rscale>
<asrwt>0</asrwt>
<pdfrwt beam="1">  1       21 0.67075098E-01 0.47204838E+03</pdfrwt>
<pdfrwt beam="2">  1       21 0.17961140E-01 0.47204838E+03</pdfrwt>
<totfact> 0.52583100E+04</totfact>
</mgrwt>
</event>
<event>
 6    0  0.1539497E-004  0.3985090E+03  0.7546771E-02  0.1044297E+00
         21   -1    0    0  502  501  0.00000000000E+00  0.00000000000E+00  0.22464127480E+03  0.22464127480E+03  0.00000000000E+00 0.  1.
         21   -1    0    0  501  502 -0.00000000000E+00 -0.00000000000E+00 -0.17673668064E+03  0.17673668064E+03  0.00000000000E+00 0.  1.
      99925    2    1    2    0    0 -0.28238835087E+02 -0.30421997257E+02  0.23286255613E+02  0.26730148316E+03  0.26303023301E+03 0.  0.
         25    1    3    3    0    0 -0.74145468442E+01 -0.27182449587E+02 -0.26666748905E+02  0.13096749470E+03  0.12509000000E+03 0.  0.
         25    1    1    2    0    0  0.28238835087E+02  0.30421997257E+02  0.24618338551E+02  0.13407647227E+03  0.12509000000E+03 0.  0.
         25    1    3    3    0    0 -0.20824288242E+02 -0.32395476700E+01  0.49953004518E+02  0.13633398846E+03  0.12509000000E+03 0.  0.
<mgrwt>
<rscale>  2 0.39850899E+03</rscale>
<asrwt>0</asrwt>
<pdfrwt beam="1">  1       21 0.33035481E-01 0.39850899E+03</pdfrwt>
<pdfrwt beam="2">  1       21 0.25990689E-01 0.39850899E+03</pdfrwt>
<totfact> 0.11724485E+05</totfact>
</mgrwt>
</event>
<event>
 6    0  0.1539497E-004  0.4399173E+03  0.7546771E-02  0.1030772E+00
         21   -1    0    0  502  501  0.00000000000E+00  0.00000000000E+00  0.44648718755E+03  0.44648718755E+03  0.00000000000E+00 0. -1.
         21   -1    0    0  501  502 -0.00000000000E+00 -0.00000000000E+00 -0.10836101631E+03  0.10836101631E+03  0.00000000000E+00 0. -1.
      99925    2    1    2    0    0 -0.35307159395E+02  0.91798799888E+02  0.21919796389E+03  0.35619010116E+03  0.26296392457E+03 0.  0.
         25    1    3    3    0    0 -0.35377034696E+02  0.84201127468E+02  0.11002120114E+03  0.18998299200E+03  0.12509000000E+03 0.  0.
         25    1    3    3    0    0  0.69875301603E-01  0.75976724195E+01  0.10917676276E+03  0.16620710916E+03  0.12509000000E+03 0.  0.
         25    1    1    2    0    0  0.35307159395E+02 -0.91798799888E+02  0.11892820735E+03  0.19865810270E+03  0.12509000000E+03 0.  0.
<mgrwt>
<rscale>  2 0.43991729E+03</rscale>
<asrwt>0</asrwt>
<pdfrwt beam="1">  1       21 0.65659880E-01 0.43991729E+03</pdfrwt>
<pdfrwt beam="2">  1       21 0.15935444E-01 0.43991729E+03</pdfrwt>
<totfact> 0.69472766E+04</totfact>
</mgrwt>
</event>
<event>
 6    0  0.1539497E-004  0.4663425E+03  0.7546771E-02  0.1022958E+00
         21   -1    0    0  502  501  0.00000000000E+00  0.00000000000E+00  0.44206090896E+02  0.44206090896E+02  0.00000000000E+00 0.  1.
         21   -1    0    0  501  502 -0.00000000000E+00 -0.00000000000E+00 -0.12298946321E+04  0.12298946321E+04  0.00000000000E+00 0.  1.
      99925    2    1    2    0    0 -0.76237169841E+02 -0.26176798034E+02 -0.48322322858E+03  0.55604616075E+03  0.26303101229E+03 0.  0.
         25    1    3    3    0    0 -0.44796022748E+02 -0.51687972287E+02 -0.27563615196E+03  0.31032422803E+03  0.12509000000E+03 0.  0.
         25    1    3    3    0    0 -0.31441147094E+02  0.25511174254E+02 -0.20758707662E+03  0.24572193272E+03  0.12509000000E+03 0.  0.
         25    1    1    2    0    0  0.76237169841E+02  0.26176798034E+02 -0.70246531262E+03  0.71805456224E+03  0.12509000000E+03 0.  0.
<mgrwt>
<rscale>  2 0.46634251E+03</rscale>
<asrwt>0</asrwt>
<pdfrwt beam="1">  1       21 0.65008969E-02 0.46634251E+03</pdfrwt>
<pdfrwt beam="2">  1       21 0.18086682E+00 0.46634251E+03</pdfrwt>
<totfact> 0.27378385E+04</totfact>
</mgrwt>
</event>
<event>
 6    0  0.1539497E-004  0.3905495E+03  0.7546771E-02  0.1047102E+00
         21   -1    0    0  502  501  0.00000000000E+00  0.00000000000E+00  0.31161184556E+03  0.31161184556E+03  0.00000000000E+00 0.  1.
         21   -1    0    0  501  502 -0.00000000000E+00 -0.00000000000E+00 -0.12237094275E+03  0.12237094275E+03  0.00000000000E+00 0.  1.
      99925    2    1    2    0    0 -0.17369779876E+02 -0.60887262864E+01  0.11384681583E+03  0.28677355526E+03  0.26256274047E+03 0.  0.
         25    1    1    2    0    0  0.17369779876E+02  0.60887262864E+01  0.75394086983E+02  0.14720923304E+03  0.12509000000E+03 0.  0.
         25    1    3    3    0    0  0.86693054112E+00  0.61204702669E+01  0.15606881692E+02  0.12621130924E+03  0.12509000000E+03 0.  0.
         25    1    3    3    0    0 -0.18236710417E+02 -0.12209196553E+02  0.98239934133E+02  0.16056224602E+03  0.12509000000E+03 0.  0.
<mgrwt>
<rscale>  2 0.39054954E+03</rscale>
<asrwt>0</asrwt>
<pdfrwt beam="1">  1       21 0.45825271E-01 0.39054954E+03</pdfrwt>
<pdfrwt beam="2">  1       21 0.17995727E-01 0.39054954E+03</pdfrwt>
<totfact> 0.12139966E+05</totfact>
</mgrwt>
</event>
<event>
 6    0  0.1539497E-004  0.4037888E+03  0.7546771E-02  0.1042476E+00
         21   -1    0    0  502  501  0.00000000000E+00  0.00000000000E+00  0.20238496214E+03  0.20238496214E+03  0.00000000000E+00 0. -1.
         21   -1    0    0  501  502 -0.00000000000E+00 -0.00000000000E+00 -0.20140500792E+03  0.20140500792E+03  0.00000000000E+00 0. -1.
      99925    2    1    2    0    0 -0.31121458442E+02  0.18287174171E+02 -0.37301388278E+02  0.26808464519E+03  0.26301143988E+03 0.  0.
         25    1    3    3    0    0 -0.54969608116E+02  0.65179375707E+01 -0.29671019230E+02  0.13997149284E+03  0.12509000000E+03 0.  0.
         25    1    3    3    0    0  0.23848149674E+02  0.11769236600E+02 -0.76303690474E+01  0.12811315235E+03  0.12509000000E+03 0.  0.
         25    1    1    2    0    0  0.31121458442E+02 -0.18287174171E+02  0.38281342490E+02  0.13570532487E+03  0.12509000000E+03 0.  0.
<mgrwt>
<rscale>  2 0.40378878E+03</rscale>
<asrwt>0</asrwt>
<pdfrwt beam="1">  1       21 0.29762495E-01 0.40378878E+03</pdfrwt>
<pdfrwt beam="2">  1       21 0.29618383E-01 0.40378878E+03</pdfrwt>
<totfact> 0.11154754E+05</totfact>
</mgrwt>
</event>
<event>
 6    0  0.1539497E-004  0.4039542E+03  0.7546771E-02  0.1042419E+00
         21   -1    0    0  502  501  0.00000000000E+00  0.00000000000E+00  0.40554194479E+03  0.40554194479E+03  0.00000000000E+00 0.  1.
         21   -1    0    0  501  502 -0.00000000000E+00 -0.00000000000E+00 -0.10059318073E+03  0.10059318073E+03  0.00000000000E+00 0.  1.
      99925    2    1    2    0    0  0.29514101663E+02  0.40369669341E+02  0.18783417170E+03  0.32762986441E+03  0.26374013650E+03 0.  0.
         25    1    3    3    0    0 -0.16825981607E+02  0.50713491231E+01  0.11850220877E+03  0.17320252256E+03  0.12509000000E+03 0.  0.
         25    1    1    2    0    0 -0.29514101663E+02 -0.40369669341E+02  0.11711459235E+03  0.17850526110E+03  0.12509000000E+03 0.  0.
         25    1    3    3    0    0  0.46340083270E+02  0.35298320218E+02  0.69331962929E+02  0.15442734185E+03  0.12509000000E+03 0.  0.
<mgrwt>
<rscale>  2 0.40395423E+03</rscale>
<asrwt>0</asrwt>
<pdfrwt beam="1">  1       21 0.59638521E-01 0.40395423E+03</pdfrwt>
<pdfrwt beam="2">  1       21 0.14793115E-01 0.40395423E+03</pdfrwt>
<totfact> 0.99338192E+04</totfact>
</mgrwt>
</event>
<event>
 6    0  0.1539497E-004  0.4567681E+03  0.7546771E-02  0.1025723E+00
         21   -1    0    0  502  501  0.00000000000E+00  0.00000000000E+00  0.41394529797E+03  0.41394529797E+03  0.00000000000E+00 0.  1.
         21   -1    0    0  501  502 -0.00000000000E+00 -0.00000000000E+00 -0.12600524538E+03  0.12600524538E+03  0.00000000000E+00 0.  1.
      99925    2    1    2    0    0 -0.41362337439E+02 -0.10675766581E+03  0.17148402815E+03  0.33423822993E+03  0.26305965154E+03 0.  0.
         25    1    1    2    0    0  0.41362337439E+02  0.10675766581E+03  0.11645602444E+03  0.20571231343E+03  0.12509000000E+03 0.  0.
         25    1    3    3    0    0 -0.20926519832E+02 -0.98765725559E+01  0.81423808813E+02  0.15103910308E+03  0.12509000000E+03 0.  0.
         25    1    3    3    0    0 -0.20435817607E+02 -0.96881093253E+02  0.90060219334E+02  0.18319912685E+03  0.12509000000E+03 0.  0.
<mgrwt>
<rscale>  2 0.45676812E+03</rscale>
<asrwt>0</asrwt>
<pdfrwt beam="1">  1       21 0.60874308E-01 0.45676812E+03</pdfrwt>
<pdfrwt beam="2">  1       21 0.18530183E-01 0.45676812E+03</pdfrwt>
<totfact> 0.61668061E+04</totfact>
</mgrwt>
</event>
<event>
 6    0  0.1539497E-004  0.4086032E+03  0.7546771E-02  0.1040841E+00
         21   -1    0    0  502  501  0.00000000000E+00  0.00000000000E+00  0.18092198668E+03  0.18092198668E+03  0.00000000000E+00 0. -1.
         21   -1    0    0  501  502 -0.00000000000E+00 -0.00000000000E+00 -0.23070248051E+03  0.23070248051E+03  0.00000000000E+00 0. -1.
      99925    2    1    2    0    0 -0.54305425693E+02 -0.25795751295E+02 -0.29194896818E+02  0.27131846251E+03  0.26295791689E+03 0.  0.
         25    1    1    2    0    0  0.54305425693E+02  0.25795751295E+02 -0.20585597017E+02  0.14030600468E+03  0.12509000000E+03 0.  0.
         25    1    3    3    0    0 -0.60357938939E+02 -0.36505425874E+02 -0.23309285588E+02  0.14548731149E+03  0.12509000000E+03 0.  0.
         25    1    3    3    0    0  0.60525132453E+01  0.10709674580E+02 -0.58856112296E+01  0.12583115101E+03  0.12509000000E+03 0.  0.
<mgrwt>
<rscale>  2 0.40860324E+03</rscale>
<asrwt>0</asrwt>
<pdfrwt beam="1">  1       21 0.26606175E-01 0.40860324E+03</pdfrwt>
<pdfrwt beam="2">  1       21 0.33926835E-01 0.40860324E+03</pdfrwt>
<totfact> 0.10596522E+05</totfact>
</mgrwt>
</event>
<event>
 6    0  0.1539497E-004  0.4105011E+03  0.7546771E-02  0.1040203E+00
         21   -1    0    0  502  501  0.00000000000E+00  0.00000000000E+00  0.23317002995E+03  0.23317002995E+03  0.00000000000E+00 0.  1.
         21   -1    0    0  501  502 -0.00000000000E+00 -0.00000000000E+00 -0.18067408596E+03  0.18067408596E+03  0.00000000000E+00 0.  1.
      99925    2    1    2    0    0  0.39062220670E+02 -0.45285215736E+02  0.14637924316E+02  0.27011748093E+03  0.26300679996E+03 0.  0.
         25    1    1    2    0    0 -0.39062220670E+02  0.45285215736E+02  0.37858019678E+02  0.14372663498E+03  0.12509000000E+03 0.  0.
         25    1    3    3    0    0  0.29956218574E+02 -0.61066073532E+02  0.18901481564E+02  0.14363570055E+03  0.12509000000E+03 0.  0.
         25    1    3    3    0    0  0.91060020961E+01  0.15780857796E+02 -0.42635572486E+01  0.12648178038E+03  0.12509000000E+03 0.  0.
<mgrwt>
<rscale>  2 0.41050107E+03</rscale>
<asrwt>0</asrwt>
<pdfrwt beam="1">  1       21 0.34289711E-01 0.41050107E+03</pdfrwt>
<pdfrwt beam="2">  1       21 0.26569718E-01 0.41050107E+03</pdfrwt>
<totfact> 0.10395869E+05</totfact>
</mgrwt>
</event>
<event>
 6    0  0.1539497E-004  0.4068612E+03  0.7546771E-02  0.1041429E+00
         21   -1    0    0  502  501  0.00000000000E+00  0.00000000000E+00  0.59362928811E+02  0.59362928811E+02  0.00000000000E+00 0.  1.
         21   -1    0    0  501  502 -0.00000000000E+00 -0.00000000000E+00 -0.69713569259E+03  0.69713569259E+03  0.00000000000E+00 0.  1.
      99925    2    1    2    0    0 -0.41832109262E+02 -0.38955027921E+02 -0.40697525469E+03  0.48783076350E+03  0.26283564508E+03 0.  0.
         25    1    3    3    0    0 -0.45175871342E+02 -0.48129208785E+02 -0.24562901014E+03  0.28344029144E+03  0.12509000000E+03 0.  0.
         25    1    3    3    0    0  0.33437620792E+01  0.91741808638E+01 -0.16134624455E+03  0.20439047206E+03  0.12509000000E+03 0.  0.
         25    1    1    2    0    0  0.41832109262E+02  0.38955027921E+02 -0.23079750909E+03  0.26866785789E+03  0.12509000000E+03 0.  0.
<mgrwt>
<rscale>  2 0.40686124E+03</rscale>
<asrwt>0</asrwt>
<pdfrwt beam="1">  1       21 0.87298425E-02 0.40686124E+03</pdfrwt>
<pdfrwt beam="2">  1       21 0.10251995E+00 0.40686124E+03</pdfrwt>
<totfact> 0.74287600E+04</totfact>
</mgrwt>
</event>
<event>
 6    0  0.1539497E-004  0.4724004E+03  0.7546771E-02  0.1021245E+00
         21   -1    0    0  502  501  0.00000000000E+00  0.00000000000E+00  0.46565569469E+03  0.46565569469E+03  0.00000000000E+00 0. -1.
         21   -1    0    0  501  502 -0.00000000000E+00 -0.00000000000E+00 -0.11981071709E+03  0.11981071709E+03  0.00000000000E+00 0. -1.
      99925    2    1    2    0    0  0.32971198820E+02  0.10163025951E+03  0.12525333509E+03  0.31028648801E+03  0.26300854947E+03 0.  0.
         25    1    3    3    0    0  0.43370867895E+02  0.28781616568E+02  0.37074421769E+02  0.14046862455E+03  0.12509000000E+03 0.  0.
         25    1    3    3    0    0 -0.10399669075E+02  0.72848642939E+02  0.88178913322E+02  0.16981786346E+03  0.12509000000E+03 0.  0.
         25    1    1    2    0    0 -0.32971198820E+02 -0.10163025951E+03  0.22059164251E+03  0.27517992377E+03  0.12509000000E+03 0.  0.
<mgrwt>
<rscale>  2 0.47240043E+03</rscale>
<asrwt>0</asrwt>
<pdfrwt beam="1">  1       21 0.68478778E-01 0.47240043E+03</pdfrwt>
<pdfrwt beam="2">  1       21 0.17619223E-01 0.47240043E+03</pdfrwt>
<totfact> 0.52044955E+04</totfact>
</mgrwt>
</event>
<event>
 6    0  0.1539497E-004  0.4066139E+03  0.7546771E-02  0.1041513E+00
         21   -1    0    0  502  501  0.00000000000E+00  0.00000000000E+00  0.49560241700E+03  0.49560241700E+03  0.00000000000E+00 0.  1.
         21   -1    0    0  501  502 -0.00000000000E+00 -0.00000000000E+00 -0.83400944860E+02  0.83400944860E+02  0.00000000000E+00 0.  1.
      99925    2    1    2    0    0  0.35117239566E+02 -0.15889989118E+02  0.33272683436E+03  0.42587126718E+03  0.26300851249E+03 0.  0.
         25    1    3    3    0    0  0.44300078485E+02  0.48657698189E+01  0.21440769764E+03  0.25219901185E+03  0.12509000000E+03 0.  0.
         25    1    3    3    0    0 -0.91828389183E+01 -0.20755758937E+02  0.11831913671E+03  0.17367225533E+03  0.12509000000E+03 0.  0.
         25    1    1    2    0    0 -0.35117239566E+02  0.15889989118E+02  0.79474637778E+02  0.15313209467E+03  0.12509000000E+03 0.  0.
<mgrwt>
<rscale>  2 0.40661387E+03</rscale>
<asrwt>0</asrwt>
<pdfrwt beam="1">  1       21 0.72882707E-01 0.40661387E+03</pdfrwt>
<pdfrwt beam="2">  1       21 0.12264845E-01 0.40661387E+03</pdfrwt>
<totfact> 0.89669274E+04</totfact>
</mgrwt>
</event>
<event>
 6    0  0.1958610E-004  0.3945782E+03  0.7546771E-02  0.1045673E+00
         21   -1    0    0  502  501  0.00000000000E+00  0.00000000000E+00  0.15330516773E+03  0.15330516773E+03  0.00000000000E+00 0. -1.
         21   -1    0    0  501  502 -0.00000000000E+00 -0.00000000000E+00 -0.25389219019E+03  0.25389219019E+03  0.00000000000E+00 0. -1.
      99925    2    1    2    0    0 -0.79928672085E+01 -0.99030823963E+01 -0.10002959345E+03  0.28146042701E+03  0.26277765399E+03 0.  0.
         25    1    3    3    0    0  0.21440135009E+02 -0.25830793924E+02 -0.74708703864E+02  0.14951858693E+03  0.12509000000E+03 0.  0.
         25    1    3    3    0    0 -0.29433002217E+02  0.15927711528E+02 -0.25320889581E+02  0.13194184008E+03  0.12509000000E+03 0.  0.
         25    1    1    2    0    0  0.79928672085E+01  0.99030823963E+01 -0.55742901380E+00  0.12573693091E+03  0.12509000000E+03 0.  0.
<mgrwt>
<rscale>  2 0.39457818E+03</rscale>
<asrwt>0</asrwt>
<pdfrwt beam="1">  1       21 0.22544878E-01 0.39457818E+03</pdfrwt>
<pdfrwt beam="2">  1       21 0.37337086E-01 0.39457818E+03</pdfrwt>
<totfact> 0.12066336E+05</totfact>
</mgrwt>
</event>
<event>
 6    0  0.1539497E-004  0.4491221E+03  0.7546771E-02  0.1027984E+00
         21   -1    0    0  502  501  0.00000000000E+00  0.00000000000E+00  0.10258194472E+03  0.10258194472E+03  0.00000000000E+00 0.  1.
         21   -1    0    0  501  502 -0.00000000000E+00 -0.00000000000E+00 -0.49158417022E+03  0.49158417022E+03  0.00000000000E+00 0.  1.
      99925    2    1    2    0    0  0.25194716625E+02 -0.64269813169E+02 -0.35526025075E+03  0.44736212456E+03  0.26297840614E+03 0.  0.
         25    1    3    3    0    0 -0.16416865789E+01 -0.56701668472E+02 -0.13536052242E+03  0.19284126496E+03  0.12509000000E+03 0.  0.
         25    1    3    3    0    0  0.26836403204E+02 -0.75681446969E+01 -0.21989972833E+03  0.25452085960E+03  0.12509000000E+03 0.  0.
         25    1    1    2    0    0 -0.25194716625E+02  0.64269813169E+02 -0.33741974750E+02  0.14680399038E+03  0.12509000000E+03 0.  0.
<mgrwt>
<rscale>  2 0.44912208E+03</rscale>
<asrwt>0</asrwt>
<pdfrwt beam="1">  1       21 0.15085580E-01 0.44912208E+03</pdfrwt>
<pdfrwt beam="2">  1       21 0.72291789E-01 0.44912208E+03</pdfrwt>
<totfact> 0.61862607E+04</totfact>
</mgrwt>
</event>
<event>
 5    0  0.1539497E-004  0.4322202E+03  0.7546771E-02  0.1033161E+00
         21   -1    0    0  502  501  0.00000000000E+00  0.00000000000E+00  0.28486942582E+03  0.28486942582E+03  0.00000000000E+00 0.  1.
         21   -1    0    0  501  502 -0.00000000000E+00 -0.00000000000E+00 -0.16394729191E+03  0.16394729191E+03  0.00000000000E+00 0.  1.
         25    1    1    2    0    0  0.33495649642E+02  0.14969939263E+01  0.98278443458E+01  0.12987799721E+03  0.12509000000E+03 0.  0.
         25    1    1    2    0    0 -0.63635794041E+02  0.58182597036E+02  0.27793312151E+02  0.15444968495E+03  0.12509000000E+03 0.  0.
         25    1    1    2    0    0  0.30140144400E+02 -0.59679590962E+02  0.83300977415E+02  0.16448903556E+03  0.12509000000E+03 0.  0.
<mgrwt>
<rscale>  2 0.43222018E+03</rscale>
<asrwt>0</asrwt>
<pdfrwt beam="1">  1       21 0.41892563E-01 0.43222018E+03</pdfrwt>
<pdfrwt beam="2">  1       21 0.24109896E-01 0.43222018E+03</pdfrwt>
<totfact> 0.83070208E+04</totfact>
</mgrwt>
</event>
