<event>
 5    0  0.7453427E-004  0.1162211E+04  0.7546771E-02  0.9146592E-01
         21   -1    0    0  502  501  0.00000000000E+00  0.00000000000E+00  0.18249907542E+04  0.18249907542E+04  0.00000000000E+00 0. -1.
         21   -1    0    0  501  502 -0.00000000000E+00 -0.00000000000E+00 -0.18503310549E+03  0.18503310549E+03  0.00000000000E+00 0.  1.
         25    1    1    2    0    0  0.29471742119E+02  0.31535923846E+03  0.10834107747E+04  0.11356700435E+04  0.12509000000E+03 0.  0.
         25    1    1    2    0    0 -0.16024949216E+03  0.91484649617E+02  0.24295202661E+03  0.32973100580E+03  0.12509000000E+03 0.  0.
         25    1    1    2    0    0  0.13077775004E+03 -0.40684388807E+03  0.31359484735E+03  0.54462281035E+03  0.12509000000E+03 0.  0.
<mgrwt>
<rscale>  2 0.11622112E+04</rscale>
<asrwt>0</asrwt>
<pdfrwt beam="1">  1       21 0.26838098E+00 0.11622112E+04</pdfrwt>
<pdfrwt beam="2">  1       21 0.27210752E-01 0.11622112E+04</pdfrwt>
<totfact> 0.43237018E+02</totfact>
</mgrwt>
</event>
<event>
 5    0  0.7453427E-004  0.8483672E+03  0.7546771E-02  0.9492531E-01
         21   -1    0    0  502  501  0.00000000000E+00  0.00000000000E+00  0.73011596375E+03  0.73011596375E+03  0.00000000000E+00 0.  1.
         21   -1    0    0  501  502 -0.00000000000E+00 -0.00000000000E+00 -0.24644267586E+03  0.24644267586E+03  0.00000000000E+00 0.  1.
         25    1    1    2    0    0 -0.18621406982E+03  0.23167977680E+03  0.18154950473E+03  0.37007962595E+03  0.12509000000E+03 0.  0.
         25    1    1    2    0    0  0.25939420664E+03 -0.20543347669E+03  0.29227564022E+03  0.45886907255E+03  0.12509000000E+03 0.  0.
         25    1    1    2    0    0 -0.73180136820E+02 -0.26246300118E+02  0.98481429397E+01  0.14760994111E+03  0.12509000000E+03 0.  0.
<mgrwt>
<rscale>  2 0.84836721E+03</rscale>
<asrwt>0</asrwt>
<pdfrwt beam="1">  1       21 0.10736999E+00 0.84836721E+03</pdfrwt>
<pdfrwt beam="2">  1       21 0.36241570E-01 0.84836721E+03</pdfrwt>
<totfact> 0.40442594E+03</totfact>
</mgrwt>
</event>
<event>
 5    0  0.7453427E-004  0.5482353E+03  0.7546771E-02  0.1001903E+00
         21   -1    0    0  502  501  0.00000000000E+00  0.00000000000E+00  0.74271248305E+02  0.74271248305E+02  0.00000000000E+00 0.  1.
         21   -1    0    0  501  502 -0.00000000000E+00 -0.00000000000E+00 -0.10117035847E+04  0.10117035847E+04  0.00000000000E+00 0.  1.
         25    1    1    2    0    0 -0.39608346198E+02 -0.89579783707E+02 -0.27732937145E+03  0.31961296455E+03  0.12509000000E+03 0.  0.
         25    1    1    2    0    0 -0.20638471020E+02  0.21577795141E+02 -0.57636709272E+03  0.59054049937E+03  0.12509000000E+03 0.  0.
         25    1    1    2    0    0  0.60246817218E+02  0.68001988566E+02 -0.83735872247E+02  0.17582136911E+03  0.12509000000E+03 0.  0.
<mgrwt>
<rscale>  2 0.54823531E+03</rscale>
<asrwt>0</asrwt>
<pdfrwt beam="1">  1       21 0.10922243E-01 0.54823531E+03</pdfrwt>
<pdfrwt beam="2">  1       21 0.14877993E+00 0.54823531E+03</pdfrwt>
<totfact> 0.18444059E+04</totfact>
</mgrwt>
</event>
<event>
 5    0  0.7453427E-004  0.5603451E+03  0.7546771E-02  0.9991274E-01
         21   -1    0    0  502  501  0.00000000000E+00  0.00000000000E+00  0.43945163260E+03  0.43945163260E+03  0.00000000000E+00 0.  1.
         21   -1    0    0  501  502 -0.00000000000E+00 -0.00000000000E+00 -0.17862413525E+03  0.17862413525E+03  0.00000000000E+00 0. -1.
         25    1    1    2    0    0  0.15047104823E+03  0.12513787949E+03  0.10119799568E+03  0.25335660179E+03  0.12509000000E+03 0.  0.
         25    1    1    2    0    0 -0.44052447488E+02 -0.42450087085E+02  0.99935879090E+02  0.17139812150E+03  0.12509000000E+03 0.  0.
         25    1    1    2    0    0 -0.10641860074E+03 -0.82687792409E+02  0.59693622580E+02  0.19332104457E+03  0.12509000000E+03 0.  0.
<mgrwt>
<rscale>  2 0.56034514E+03</rscale>
<asrwt>0</asrwt>
<pdfrwt beam="1">  1       21 0.64625240E-01 0.56034514E+03</pdfrwt>
<pdfrwt beam="2">  1       21 0.26268255E-01 0.56034514E+03</pdfrwt>
<totfact> 0.27009697E+04</totfact>
</mgrwt>
</event>
<event>
 5    0  0.7453427E-004  0.5266818E+03  0.7546771E-02  0.1007040E+00
         21   -1    0    0  502  501  0.00000000000E+00  0.00000000000E+00  0.58221813698E+02  0.58221813698E+02  0.00000000000E+00 0.  1.
         21   -1    0    0  501  502 -0.00000000000E+00 -0.00000000000E+00 -0.11911073761E+04  0.11911073761E+04  0.00000000000E+00 0.  1.
         25    1    1    2    0    0  0.12461509396E+03  0.13079580881E+02 -0.49976227997E+03  0.53019792687E+03  0.12509000000E+03 0.  0.
         25    1    1    2    0    0 -0.15118209204E+03  0.43454694013E+02 -0.38650985289E+03  0.43563942643E+03  0.12509000000E+03 0.  0.
         25    1    1    2    0    0  0.26566998075E+02 -0.56534274894E+02 -0.24661342954E+03  0.28349183648E+03  0.12509000000E+03 0.  0.
<mgrwt>
<rscale>  2 0.52668181E+03</rscale>
<asrwt>0</asrwt>
<pdfrwt beam="1">  1       21 0.85620326E-02 0.52668181E+03</pdfrwt>
<pdfrwt beam="2">  1       21 0.17516283E+00 0.52668181E+03</pdfrwt>
<totfact> 0.18169566E+04</totfact>
</mgrwt>
</event>
<event>
 5    0  0.7453427E-004  0.4899736E+03  0.7546771E-02  0.1016430E+00
         21   -1    0    0  502  501  0.00000000000E+00  0.00000000000E+00  0.78232246575E+02  0.78232246575E+02  0.00000000000E+00 0. -1.
         21   -1    0    0  501  502 -0.00000000000E+00 -0.00000000000E+00 -0.76718409578E+03  0.76718409578E+03  0.00000000000E+00 0. -1.
         25    1    1    2    0    0 -0.90172752702E+02 -0.19519588186E+02 -0.31094281793E+03  0.34762779488E+03  0.12509000000E+03 0.  0.
         25    1    1    2    0    0  0.29805082057E+02  0.91866232725E+02 -0.24885302376E+03  0.29479328888E+03  0.12509000000E+03 0.  0.
         25    1    1    2    0    0  0.60367670646E+02 -0.72346644539E+02 -0.12915600751E+03  0.20299525860E+03  0.12509000000E+03 0.  0.
<mgrwt>
<rscale>  2 0.48997361E+03</rscale>
<asrwt>0</asrwt>
<pdfrwt beam="1">  1       21 0.11504743E-01 0.48997361E+03</pdfrwt>
<pdfrwt beam="2">  1       21 0.11282119E+00 0.48997361E+03</pdfrwt>
<totfact> 0.35005145E+04</totfact>
</mgrwt>
</event>
