<event>
 7    0  0.4709932E-002  0.4577246E+03  0.7546771E-02  0.1025443E+00
         21   -1    0    0  502  501  0.00000000000E+00  0.00000000000E+00  0.49356451754E+03  0.49356451754E+03  0.00000000000E+00 0. -1.
         21   -1    0    0  501  502 -0.00000000000E+00 -0.00000000000E+00 -0.10612181089E+03  0.10612181089E+03  0.00000000000E+00 0. -1.
      99926    2    1    2    0    0  0.00000000000E+00  0.00000000000E+00  0.38744270665E+03  0.59968632843E+03  0.45772463509E+03 0.  0.
      99925    2    3    3    0    0 -0.70932927297E+02 -0.58250762663E+01  0.12366912810E+03  0.29920434805E+03  0.26299007008E+03 0.  0.
         25    1    4    4    0    0 -0.56990338880E+02 -0.31068825097E+02  0.41987726015E+02  0.14704981419E+03  0.12509000000E+03 0.  0.
         25    1    4    4    0    0 -0.13942588417E+02  0.25243748831E+02  0.81681402084E+02  0.15215453386E+03  0.12509000000E+03 0.  0.
         25    1    3    3    0    0  0.70932927297E+02  0.58250762663E+01  0.26377357856E+03  0.30048198038E+03  0.12509000000E+03 0.  0.
<mgrwt>
<rscale>  2 0.45772464E+03</rscale>
<asrwt>0</asrwt>
<pdfrwt beam="1">  1       21 0.72583016E-01 0.45772464E+03</pdfrwt>
<pdfrwt beam="2">  1       21 0.15606149E-01 0.45772464E+03</pdfrwt>
<totfact> 0.57450724E+04</totfact>
</mgrwt>
</event>
<event>
 7    0  0.4709932E-002  0.4525692E+03  0.7546771E-02  0.1026959E+00
         21   -1    0    0  502  501  0.00000000000E+00  0.00000000000E+00  0.36571155702E+03  0.36571155702E+03  0.00000000000E+00 0.  1.
         21   -1    0    0  501  502 -0.00000000000E+00 -0.00000000000E+00 -0.14001394065E+03  0.14001394065E+03  0.00000000000E+00 0.  1.
      99926    2    1    2    0    0  0.00000000000E+00  0.00000000000E+00  0.22569761637E+03  0.50572549766E+03  0.45256918250E+03 0.  0.
      99925    2    3    3    0    0  0.46318868552E+02 -0.66420918862E+02  0.57849426094E+02  0.28127572795E+03  0.26308231219E+03 0.  0.
         25    1    4    4    0    0  0.41062545022E+02 -0.29515652092E+02 -0.78377946711E+01  0.13515267458E+03  0.12509000000E+03 0.  0.
         25    1    4    4    0    0  0.52563235292E+01 -0.36905266771E+02  0.65687220766E+02  0.14612305336E+03  0.12509000000E+03 0.  0.
         25    1    3    3    0    0 -0.46318868552E+02  0.66420918862E+02  0.16784819028E+03  0.22444976971E+03  0.12509000000E+03 0.  0.
<mgrwt>
<rscale>  2 0.45256918E+03</rscale>
<asrwt>0</asrwt>
<pdfrwt beam="1">  1       21 0.53781111E-01 0.45256918E+03</pdfrwt>
<pdfrwt beam="2">  1       21 0.20590285E-01 0.45256918E+03</pdfrwt>
<totfact> 0.66137081E+04</totfact>
</mgrwt>
</event>
<event>
 7    0  0.4709932E-002  0.4537823E+03  0.7546771E-02  0.1026600E+00
         21   -1    0    0  502  501  0.00000000000E+00  0.00000000000E+00  0.37896838438E+03  0.37896838438E+03  0.00000000000E+00 0.  1.
         21   -1    0    0  501  502 -0.00000000000E+00 -0.00000000000E+00 -0.13584142064E+03  0.13584142064E+03  0.00000000000E+00 0.  1.
      99926    2    1    2    0    0 -0.71054273576E-14  0.00000000000E+00  0.24312696374E+03  0.51480980501E+03  0.45378234302E+03 0.  0.
      99925    2    3    3    0    0 -0.36259645221E+02 -0.60434843549E+02  0.25227891936E+03  0.37094042475E+03  0.26264998262E+03 0.  0.
         25    1    4    4    0    0 -0.51017755264E+02 -0.32917753081E+02  0.99222944088E+02  0.17081888231E+03  0.12509000000E+03 0.  0.
         25    1    3    3    0    0  0.36259645221E+02  0.60434843549E+02 -0.91519556214E+01  0.14386938027E+03  0.12509000000E+03 0.  0.
         25    1    4    4    0    0  0.14758110043E+02 -0.27517090467E+02  0.15305597527E+03  0.20012154244E+03  0.12509000000E+03 0.  0.
<mgrwt>
<rscale>  2 0.45378234E+03</rscale>
<asrwt>0</asrwt>
<pdfrwt beam="1">  1       21 0.55730644E-01 0.45378234E+03</pdfrwt>
<pdfrwt beam="2">  1       21 0.19976680E-01 0.45378234E+03</pdfrwt>
<totfact> 0.64866744E+04</totfact>
</mgrwt>
</event>
<event>
 7    0  0.4709932E-002  0.4560737E+03  0.7546771E-02  0.1025926E+00
         21   -1    0    0  502  501  0.00000000000E+00  0.00000000000E+00  0.16632208637E+03  0.16632208637E+03  0.00000000000E+00 0.  1.
         21   -1    0    0  501  502 -0.00000000000E+00 -0.00000000000E+00 -0.31265128146E+03  0.31265128146E+03  0.00000000000E+00 0.  1.
      99926    2    1    2    0    0  0.00000000000E+00  0.00000000000E+00 -0.14632919510E+03  0.47897336783E+03  0.45607373719E+03 0.  0.
      99925    2    3    3    0    0  0.57496377001E+01 -0.54374511546E+02 -0.19735187981E+03  0.33323226761E+03  0.26288083588E+03 0.  0.
         25    1    3    3    0    0 -0.57496377001E+01  0.54374511546E+02  0.51022684712E+02  0.14574110023E+03  0.12509000000E+03 0.  0.
         25    1    4    4    0    0  0.12978928420E+02 -0.28663447617E+02 -0.14752058006E+03  0.19595886163E+03  0.12509000000E+03 0.  0.
         25    1    4    4    0    0 -0.72292907204E+01 -0.25711063930E+02 -0.49831299750E+02  0.13727340597E+03  0.12509000000E+03 0.  0.
<mgrwt>
<rscale>  2 0.45607374E+03</rscale>
<asrwt>0</asrwt>
<pdfrwt beam="1">  1       21 0.24459131E-01 0.45607374E+03</pdfrwt>
<pdfrwt beam="2">  1       21 0.45978129E-01 0.45607374E+03</pdfrwt>
<totfact> 0.66208852E+04</totfact>
</mgrwt>
</event>
<event>
 7    0  0.4709932E-002  0.4304907E+03  0.7546771E-02  0.1033705E+00
         21   -1    0    0  502  501  0.00000000000E+00  0.00000000000E+00  0.40126522830E+03  0.40126522830E+03  0.00000000000E+00 0. -1.
         21   -1    0    0  501  502 -0.00000000000E+00 -0.00000000000E+00 -0.11546116352E+03  0.11546116352E+03  0.00000000000E+00 0. -1.
      99926    2    1    2    0    0 -0.35527136788E-14  0.00000000000E+00  0.28580406478E+03  0.51672639181E+03  0.43049065094E+03 0.  0.
      99925    2    3    3    0    0 -0.26641128186E+02 -0.70507566451E+02  0.23885778991E+03  0.36332323845E+03  0.26319130905E+03 0.  0.
         25    1    4    4    0    0  0.10494385606E+02 -0.50409610337E+01  0.87943649134E+02  0.15335298152E+03  0.12509000000E+03 0.  0.
         25    1    4    4    0    0 -0.37135513792E+02 -0.65466605418E+02  0.15091414078E+03  0.20997025693E+03  0.12509000000E+03 0.  0.
         25    1    3    3    0    0  0.26641128186E+02  0.70507566451E+02  0.46946274873E+02  0.15340315337E+03  0.12509000000E+03 0.  0.
<mgrwt>
<rscale>  2 0.43049065E+03</rscale>
<asrwt>0</asrwt>
<pdfrwt beam="1">  1       21 0.59009592E-01 0.43049065E+03</pdfrwt>
<pdfrwt beam="2">  1       21 0.16979583E-01 0.43049065E+03</pdfrwt>
<totfact> 0.78233643E+04</totfact>
</mgrwt>
</event>
<event>
 7    0  0.4709932E-002  0.4486218E+03  0.7546771E-02  0.1028134E+00
         21   -1    0    0  502  501  0.00000000000E+00  0.00000000000E+00  0.38784697130E+02  0.38784697130E+02  0.00000000000E+00 0.  1.
         21   -1    0    0  501  502 -0.00000000000E+00 -0.00000000000E+00 -0.12972996389E+04  0.12972996389E+04  0.00000000000E+00 0.  1.
      99926    2    1    2    0    0  0.00000000000E+00 -0.14210854715E-13 -0.12585149418E+04  0.13360843361E+04  0.44862177202E+03 0.  0.
      99925    2    3    3    0    0  0.65004976156E+02  0.69601311645E+02 -0.94219217910E+03  0.98284562384E+03  0.26303883447E+03 0.  0.
         25    1    4    4    0    0  0.45933969076E+02  0.73365928688E+02 -0.47178408688E+03  0.49570174676E+03  0.12509000000E+03 0.  0.
         25    1    4    4    0    0  0.19071007080E+02 -0.37646170433E+01 -0.47040809222E+03  0.48714387708E+03  0.12509000000E+03 0.  0.
         25    1    3    3    0    0 -0.65004976156E+02 -0.69601311645E+02 -0.31632276271E+03  0.35323871223E+03  0.12509000000E+03 0.  0.
<mgrwt>
<rscale>  2 0.44862177E+03</rscale>
<asrwt>0</asrwt>
<pdfrwt beam="1">  1       21 0.57036319E-02 0.44862177E+03</pdfrwt>
<pdfrwt beam="2">  1       21 0.19077936E+00 0.44862177E+03</pdfrwt>
<totfact> 0.29521645E+04</totfact>
</mgrwt>
</event>
<event>
 7    0  0.4709932E-002  0.4553230E+03  0.7546771E-02  0.1026146E+00
         21   -1    0    0  502  501  0.00000000000E+00  0.00000000000E+00  0.63377746631E+02  0.63377746631E+02  0.00000000000E+00 0.  1.
         21   -1    0    0  501  502 -0.00000000000E+00 -0.00000000000E+00 -0.81779102036E+03  0.81779102036E+03  0.00000000000E+00 0.  1.
      99926    2    1    2    0    0  0.14210854715E-13 -0.88817841970E-15 -0.75441327373E+03  0.88116876699E+03  0.45532297146E+03 0.  0.
      99925    2    3    3    0    0  0.89044936678E+02  0.31773151815E+01 -0.60863857550E+03  0.66942159033E+03  0.26409326749E+03 0.  0.
         25    1    4    4    0    0  0.83282476537E+02 -0.13357687766E+02 -0.36597673413E+03  0.39585461566E+03  0.12509000000E+03 0.  0.
         25    1    4    4    0    0  0.57624601406E+01  0.16535002948E+02 -0.24266184137E+03  0.27356697467E+03  0.12509000000E+03 0.  0.
         25    1    3    3    0    0 -0.89044936678E+02 -0.31773151815E+01 -0.14577469823E+03  0.21174717666E+03  0.12509000000E+03 0.  0.
<mgrwt>
<rscale>  2 0.45532297E+03</rscale>
<asrwt>0</asrwt>
<pdfrwt beam="1">  1       21 0.93202578E-02 0.45532297E+03</pdfrwt>
<pdfrwt beam="2">  1       21 0.12026337E+00 0.45532297E+03</pdfrwt>
<totfact> 0.43946666E+04</totfact>
</mgrwt>
</event>
<event>
 7    0  0.4709932E-002  0.4678428E+03  0.7546771E-02  0.1022531E+00
         21   -1    0    0  502  501  0.00000000000E+00  0.00000000000E+00  0.39413131013E+03  0.39413131013E+03  0.00000000000E+00 0.  1.
         21   -1    0    0  501  502 -0.00000000000E+00 -0.00000000000E+00 -0.13883502326E+03  0.13883502326E+03  0.00000000000E+00 0.  1.
      99926    2    1    2    0    0  0.35527136788E-14  0.00000000000E+00  0.25529628687E+03  0.53296633340E+03  0.46784283520E+03 0.  0.
      99925    2    3    3    0    0  0.22736601480E+02 -0.12189402113E+03  0.14223220798E+03  0.32366726634E+03  0.26297412968E+03 0.  0.
         25    1    3    3    0    0 -0.22736601480E+02  0.12189402113E+03  0.11306407889E+03  0.20929906705E+03  0.12509000000E+03 0.  0.
         25    1    4    4    0    0  0.21445967514E+02 -0.29254624376E+02  0.35725014423E+02  0.13505386824E+03  0.12509000000E+03 0.  0.
         25    1    4    4    0    0  0.12906339663E+01 -0.92639396753E+02  0.10650719355E+03  0.18861339811E+03  0.12509000000E+03 0.  0.
<mgrwt>
<rscale>  2 0.46784284E+03</rscale>
<asrwt>0</asrwt>
<pdfrwt beam="1">  1       21 0.57960487E-01 0.46784284E+03</pdfrwt>
<pdfrwt beam="2">  1       21 0.20416915E-01 0.46784284E+03</pdfrwt>
<totfact> 0.56980431E+04</totfact>
</mgrwt>
</event>
<event>
 7    0  0.4709932E-002  0.4453811E+03  0.7546771E-02  0.1029108E+00
         21   -1    0    0  502  501  0.00000000000E+00  0.00000000000E+00  0.59081199904E+02  0.59081199904E+02  0.00000000000E+00 0. -1.
         21   -1    0    0  501  502 -0.00000000000E+00 -0.00000000000E+00 -0.83937160479E+03  0.83937160479E+03  0.00000000000E+00 0. -1.
      99926    2    1    2    0    0  0.00000000000E+00  0.35527136788E-14 -0.78029040488E+03  0.89845280469E+03  0.44538110232E+03 0.  0.
      99925    2    3    3    0    0 -0.43529419775E+02  0.22877275862E+02 -0.31087753336E+03  0.41017610835E+03  0.26302360916E+03 0.  0.
         25    1    4    4    0    0  0.31446171841E+00  0.42134039620E+02 -0.13162547913E+03  0.18640855945E+03  0.12509000000E+03 0.  0.
         25    1    4    4    0    0 -0.43843881493E+02 -0.19256763758E+02 -0.17925205423E+03  0.22376754890E+03  0.12509000000E+03 0.  0.
         25    1    3    3    0    0  0.43529419775E+02 -0.22877275862E+02 -0.46941287152E+03  0.48827669634E+03  0.12509000000E+03 0.  0.
<mgrwt>
<rscale>  2 0.44538110E+03</rscale>
<asrwt>0</asrwt>
<pdfrwt beam="1">  1       21 0.86884123E-02 0.44538110E+03</pdfrwt>
<pdfrwt beam="2">  1       21 0.12343699E+00 0.44538110E+03</pdfrwt>
<totfact> 0.46719995E+04</totfact>
</mgrwt>
</event>
<event>
 7    0  0.4709932E-002  0.4559933E+03  0.7546771E-02  0.1025950E+00
         21   -1    0    0  502  501  0.00000000000E+00  0.00000000000E+00  0.11724436169E+03  0.11724436169E+03  0.00000000000E+00 0. -1.
         21   -1    0    0  501  502 -0.00000000000E+00 -0.00000000000E+00 -0.44336860016E+03  0.44336860016E+03  0.00000000000E+00 0. -1.
      99926    2    1    2    0    0  0.14210854715E-13 -0.14210854715E-13 -0.32612423847E+03  0.56061296184E+03  0.45599328292E+03 0.  0.
      99925    2    3    3    0    0  0.94226362269E+02 -0.64005039204E+02 -0.21306490364E+03  0.35713034912E+03  0.26300224468E+03 0.  0.
         25    1    4    4    0    0  0.23774963681E+02 -0.39891118475E+02 -0.14295605515E+03  0.19555176306E+03  0.12509000000E+03 0.  0.
         25    1    3    3    0    0 -0.94226362269E+02  0.64005039204E+02 -0.11305933483E+03  0.20348261272E+03  0.12509000000E+03 0.  0.
         25    1    4    4    0    0  0.70451398587E+02 -0.24113920729E+02 -0.70108848490E+02  0.16157858606E+03  0.12509000000E+03 0.  0.
<mgrwt>
<rscale>  2 0.45599328E+03</rscale>
<asrwt>0</asrwt>
<pdfrwt beam="1">  1       21 0.17241818E-01 0.45599328E+03</pdfrwt>
<pdfrwt beam="2">  1       21 0.65201264E-01 0.45599328E+03</pdfrwt>
<totfact> 0.60692354E+04</totfact>
</mgrwt>
</event>
<event>
 7    0  0.4709932E-002  0.4553466E+03  0.7546771E-02  0.1026140E+00
         21   -1    0    0  502  501  0.00000000000E+00  0.00000000000E+00  0.64481614585E+02  0.64481614585E+02  0.00000000000E+00 0.  1.
         21   -1    0    0  501  502 -0.00000000000E+00 -0.00000000000E+00 -0.80387457807E+03  0.80387457807E+03  0.00000000000E+00 0.  1.
      99926    2    1    2    0    0  0.00000000000E+00  0.00000000000E+00 -0.73939296348E+03  0.86835619265E+03  0.45534659642E+03 0.  0.
      99925    2    3    3    0    0  0.24201805165E+02  0.86394211811E+01 -0.67593409185E+03  0.72575568964E+03  0.26300961492E+03 0.  0.
         25    1    4    4    0    0 -0.24273058689E+02 -0.29211267756E+01 -0.37506135815E+03  0.39612655154E+03  0.12509000000E+03 0.  0.
         25    1    3    3    0    0 -0.24201805165E+02 -0.86394211811E+01 -0.63458871627E+02  0.14260050301E+03  0.12509000000E+03 0.  0.
         25    1    4    4    0    0  0.48474863854E+02  0.11560547957E+02 -0.30087273371E+03  0.32962913810E+03  0.12509000000E+03 0.  0.
<mgrwt>
<rscale>  2 0.45534660E+03</rscale>
<asrwt>0</asrwt>
<pdfrwt beam="1">  1       21 0.94825918E-02 0.45534660E+03</pdfrwt>
<pdfrwt beam="2">  1       21 0.11821683E+00 0.45534660E+03</pdfrwt>
<totfact> 0.44507832E+04</totfact>
</mgrwt>
</event>
<event>
 7    0  0.4709932E-002  0.4583956E+03  0.7546771E-02  0.1025248E+00
         21   -1    0    0  502  501  0.00000000000E+00  0.00000000000E+00  0.63917523900E+03  0.63917523900E+03  0.00000000000E+00 0.  1.
         21   -1    0    0  501  502 -0.00000000000E+00 -0.00000000000E+00 -0.82186573222E+02  0.82186573222E+02  0.00000000000E+00 0.  1.
      99926    2    1    2    0    0  0.00000000000E+00  0.00000000000E+00  0.55698866578E+03  0.72136181222E+03  0.45839556098E+03 0.  0.
      99925    2    3    3    0    0 -0.98048034425E+02  0.61568414800E+02  0.33156696714E+03  0.43875512958E+03  0.26299300995E+03 0.  0.
         25    1    3    3    0    0  0.98048034425E+02 -0.61568414800E+02  0.22542169864E+03  0.28260668264E+03  0.12509000000E+03 0.  0.
         25    1    4    4    0    0 -0.17076798361E+02  0.14243409485E+02  0.18519262166E+03  0.22458474341E+03  0.12509000000E+03 0.  0.
         25    1    4    4    0    0 -0.80971236064E+02  0.47325005314E+02  0.14637434548E+03  0.21417038617E+03  0.12509000000E+03 0.  0.
<mgrwt>
<rscale>  2 0.45839556E+03</rscale>
<asrwt>0</asrwt>
<pdfrwt beam="1">  1       21 0.93996356E-01 0.45839556E+03</pdfrwt>
<pdfrwt beam="2">  1       21 0.12086261E-01 0.45839556E+03</pdfrwt>
<totfact> 0.50398924E+04</totfact>
</mgrwt>
</event>
<event>
 7    0  0.4709932E-002  0.4551094E+03  0.7546771E-02  0.1026209E+00
         21   -1    0    0  502  501  0.00000000000E+00  0.00000000000E+00  0.72931622853E+03  0.72931622853E+03  0.00000000000E+00 0.  1.
         21   -1    0    0  501  502 -0.00000000000E+00 -0.00000000000E+00 -0.70999563880E+02  0.70999563880E+02  0.00000000000E+00 0.  1.
      99926    2    1    2    0    0  0.71054273576E-14  0.00000000000E+00  0.65831666465E+03  0.80031579241E+03  0.45510936776E+03 0.  0.
      99925    2    3    3    0    0  0.58037881087E+02 -0.94634448291E+02  0.45378080037E+03  0.53610659060E+03  0.26300035600E+03 0.  0.
         25    1    3    3    0    0 -0.58037881087E+02  0.94634448291E+02  0.20453586429E+03  0.26420920181E+03  0.12509000000E+03 0.  0.
         25    1    4    4    0    0  0.30925607311E+02 -0.82626083357E+02  0.20244545683E+03  0.25380136708E+03  0.12509000000E+03 0.  0.
         25    1    4    4    0    0  0.27112273776E+02 -0.12008364934E+02  0.25133534353E+03  0.28230522352E+03  0.12509000000E+03 0.  0.
<mgrwt>
<rscale>  2 0.45510937E+03</rscale>
<asrwt>0</asrwt>
<pdfrwt beam="1">  1       21 0.10725238E+00 0.45510937E+03</pdfrwt>
<pdfrwt beam="2">  1       21 0.10441113E-01 0.45510937E+03</pdfrwt>
<totfact> 0.47708576E+04</totfact>
</mgrwt>
</event>
<event>
 7    0  0.4709932E-002  0.4484695E+03  0.7546771E-02  0.1028179E+00
         21   -1    0    0  502  501  0.00000000000E+00  0.00000000000E+00  0.66923229579E+02  0.66923229579E+02  0.00000000000E+00 0.  1.
         21   -1    0    0  501  502 -0.00000000000E+00 -0.00000000000E+00 -0.75132687227E+03  0.75132687227E+03  0.00000000000E+00 0.  1.
      99926    2    1    2    0    0 -0.44408920985E-15 -0.71054273576E-14 -0.68440364269E+03  0.81825010185E+03  0.44846948954E+03 0.  0.
      99925    2    3    3    0    0 -0.18066981896E+01 -0.61067942137E+02 -0.59463992504E+03  0.65260713996E+03  0.26185278491E+03 0.  0.
         25    1    4    4    0    0 -0.22447871424E+02 -0.35454217882E+02 -0.22307570740E+03  0.25917404930E+03  0.12509000000E+03 0.  0.
         25    1    3    3    0    0  0.18066981896E+01  0.61067942137E+02 -0.89763717653E+02  0.16564296189E+03  0.12509000000E+03 0.  0.
         25    1    4    4    0    0  0.20641173235E+02 -0.25613724254E+02 -0.37156421763E+03  0.39343309066E+03  0.12509000000E+03 0.  0.
<mgrwt>
<rscale>  2 0.44846949E+03</rscale>
<asrwt>0</asrwt>
<pdfrwt beam="1">  1       21 0.98416518E-02 0.44846949E+03</pdfrwt>
<pdfrwt beam="2">  1       21 0.11048924E+00 0.44846949E+03</pdfrwt>
<totfact> 0.49376738E+04</totfact>
</mgrwt>
</event>
<event>
 7    0  0.4709932E-002  0.4555123E+03  0.7546771E-02  0.1026091E+00
         21   -1    0    0  502  501  0.00000000000E+00  0.00000000000E+00  0.35650974071E+03  0.35650974071E+03  0.00000000000E+00 0. -1.
         21   -1    0    0  501  502 -0.00000000000E+00 -0.00000000000E+00 -0.14550196634E+03  0.14550196634E+03  0.00000000000E+00 0. -1.
      99926    2    1    2    0    0 -0.71054273576E-14  0.00000000000E+00  0.21100777437E+03  0.50201170705E+03  0.45551231945E+03 0.  0.
      99925    2    3    3    0    0 -0.33429577567E+02 -0.34822589666E+02  0.19327241131E+02  0.26809059999E+03  0.26299976833E+03 0.  0.
         25    1    4    4    0    0 -0.55581757739E+02 -0.17185660668E+02  0.22589206649E+02  0.13979434568E+03  0.12509000000E+03 0.  0.
         25    1    4    4    0    0  0.22152180171E+02 -0.17636928997E+02 -0.32619655174E+01  0.12829625431E+03  0.12509000000E+03 0.  0.
         25    1    3    3    0    0  0.33429577567E+02  0.34822589666E+02  0.19168053324E+03  0.23392110707E+03  0.12509000000E+03 0.  0.
<mgrwt>
<rscale>  2 0.45551232E+03</rscale>
<asrwt>0</asrwt>
<pdfrwt beam="1">  1       21 0.52427903E-01 0.45551232E+03</pdfrwt>
<pdfrwt beam="2">  1       21 0.21397348E-01 0.45551232E+03</pdfrwt>
<totfact> 0.64865374E+04</totfact>
</mgrwt>
</event>
<event>
 7    0  0.4709932E-002  0.4533890E+03  0.7546771E-02  0.1026716E+00
         21   -1    0    0  502  501  0.00000000000E+00  0.00000000000E+00  0.16160099628E+04  0.16160099628E+04  0.00000000000E+00 0. -1.
         21   -1    0    0  501  502 -0.00000000000E+00 -0.00000000000E+00 -0.31800790889E+02  0.31800790889E+02  0.00000000000E+00 0. -1.
      99926    2    1    2    0    0  0.71054273576E-14  0.00000000000E+00  0.15842091719E+04  0.16478107537E+04  0.45338899370E+03 0.  0.
      99925    2    3    3    0    0 -0.59768718769E+02 -0.93064673008E+02  0.10540894433E+04  0.10920160363E+04  0.26298504895E+03 0.  0.
         25    1    4    4    0    0 -0.48012801112E+01 -0.61372258435E+02  0.41768943263E+03  0.44034256736E+03  0.12509000000E+03 0.  0.
         25    1    3    3    0    0  0.59768718769E+02  0.93064673008E+02  0.53011972860E+03  0.55579471737E+03  0.12509000000E+03 0.  0.
         25    1    4    4    0    0 -0.54967438658E+02 -0.31692414573E+02  0.63640001068E+03  0.65167346896E+03  0.12509000000E+03 0.  0.
<mgrwt>
<rscale>  2 0.45338899E+03</rscale>
<asrwt>0</asrwt>
<pdfrwt beam="1">  1       21 0.23764847E+00 0.45338899E+03</pdfrwt>
<pdfrwt beam="2">  1       21 0.46765880E-02 0.45338899E+03</pdfrwt>
<totfact> 0.20627441E+04</totfact>
</mgrwt>
</event>
<event>
 7    0  0.4709932E-002  0.4568744E+03  0.7546771E-02  0.1025692E+00
         21   -1    0    0  502  501  0.00000000000E+00  0.00000000000E+00  0.20861654729E+03  0.20861654729E+03  0.00000000000E+00 0. -1.
         21   -1    0    0  501  502 -0.00000000000E+00 -0.00000000000E+00 -0.25014106312E+03  0.25014106312E+03  0.00000000000E+00 0. -1.
      99926    2    1    2    0    0  0.00000000000E+00  0.00000000000E+00 -0.41524515834E+02  0.45875761041E+03  0.45687444632E+03 0.  0.
      99925    2    3    3    0    0 -0.59321897532E+02 -0.91857993596E+02  0.93243060087E+01  0.28500465563E+03  0.26302800712E+03 0.  0.
         25    1    3    3    0    0  0.59321897532E+02  0.91857993596E+02 -0.50848821843E+02  0.17375295479E+03  0.12509000000E+03 0.  0.
         25    1    4    4    0    0 -0.48676511412E+02 -0.59740421963E+02 -0.29240236044E+02  0.14980260440E+03  0.12509000000E+03 0.  0.
         25    1    4    4    0    0 -0.10645386119E+02 -0.32117571632E+02  0.38564542053E+02  0.13520205123E+03  0.12509000000E+03 0.  0.
<mgrwt>
<rscale>  2 0.45687445E+03</rscale>
<asrwt>0</asrwt>
<pdfrwt beam="1">  1       21 0.30678904E-01 0.45687445E+03</pdfrwt>
<pdfrwt beam="2">  1       21 0.36785450E-01 0.45687445E+03</pdfrwt>
<totfact> 0.67259853E+04</totfact>
</mgrwt>
</event>
<event>
 7    0  0.4709932E-002  0.4453781E+03  0.7546771E-02  0.1029109E+00
         21   -1    0    0  502  501  0.00000000000E+00  0.00000000000E+00  0.14484381027E+04  0.14484381027E+04  0.00000000000E+00 0. -1.
         21   -1    0    0  501  502 -0.00000000000E+00 -0.00000000000E+00 -0.34237158533E+02  0.34237158533E+02  0.00000000000E+00 0. -1.
      99926    2    1    2    0    0 -0.71054273576E-14  0.00000000000E+00  0.14142009442E+04  0.14826752612E+04  0.44537806388E+03 0.  0.
      99925    2    3    3    0    0 -0.41642745438E+02 -0.93826670120E+02  0.95184233688E+03  0.99281757567E+03  0.26295501898E+03 0.  0.
         25    1    4    4    0    0 -0.19664735893E+02 -0.64007954416E+02  0.36405686403E+03  0.39072833070E+03  0.12509000000E+03 0.  0.
         25    1    4    4    0    0 -0.21978009545E+02 -0.29818715704E+02  0.58778547285E+03  0.60208924497E+03  0.12509000000E+03 0.  0.
         25    1    3    3    0    0  0.41642745438E+02  0.93826670120E+02  0.46235860728E+03  0.48985768555E+03  0.12509000000E+03 0.  0.
<mgrwt>
<rscale>  2 0.44537806E+03</rscale>
<asrwt>0</asrwt>
<pdfrwt beam="1">  1       21 0.21300556E+00 0.44537806E+03</pdfrwt>
<pdfrwt beam="2">  1       21 0.50348772E-02 0.44537806E+03</pdfrwt>
<totfact> 0.26104203E+04</totfact>
</mgrwt>
</event>
<event>
 7    0  0.4709932E-002  0.4590454E+03  0.7546771E-02  0.1025058E+00
         21   -1    0    0  502  501  0.00000000000E+00  0.00000000000E+00  0.22737541422E+03  0.22737541422E+03  0.00000000000E+00 0.  1.
         21   -1    0    0  501  502 -0.00000000000E+00 -0.00000000000E+00 -0.23169028080E+03  0.23169028080E+03  0.00000000000E+00 0.  1.
      99926    2    1    2    0    0  0.00000000000E+00  0.00000000000E+00 -0.43148665887E+01  0.45906569502E+03  0.45904541635E+03 0.  0.
      99925    2    3    3    0    0  0.27982470782E+02  0.10985195013E+03 -0.31410641282E+02  0.28809154866E+03  0.26298220929E+03 0.  0.
         25    1    3    3    0    0 -0.27982470782E+02 -0.10985195013E+03  0.27095774693E+02  0.17097414636E+03  0.12509000000E+03 0.  0.
         25    1    4    4    0    0  0.96157654173E+01  0.50862091897E+02 -0.55861517285E+02  0.14644941977E+03  0.12509000000E+03 0.  0.
         25    1    4    4    0    0  0.18366705365E+02  0.58989858229E+02  0.24450876003E+02  0.14164212889E+03  0.12509000000E+03 0.  0.
<mgrwt>
<rscale>  2 0.45904542E+03</rscale>
<asrwt>0</asrwt>
<pdfrwt beam="1">  1       21 0.33437561E-01 0.45904542E+03</pdfrwt>
<pdfrwt beam="2">  1       21 0.34072100E-01 0.45904542E+03</pdfrwt>
<totfact> 0.66089801E+04</totfact>
</mgrwt>
</event>
<event>
 7    0  0.4709932E-002  0.4322425E+03  0.7546771E-02  0.1033154E+00
         21   -1    0    0  502  501  0.00000000000E+00  0.00000000000E+00  0.35044524268E+02  0.35044524268E+02  0.00000000000E+00 0. -1.
         21   -1    0    0  501  502 -0.00000000000E+00 -0.00000000000E+00 -0.13328299700E+04  0.13328299700E+04  0.00000000000E+00 0. -1.
      99926    2    1    2    0    0  0.00000000000E+00  0.00000000000E+00 -0.12977854458E+04  0.13678744943E+04  0.43224248857E+03 0.  0.
      99925    2    3    3    0    0  0.87429039874E+02  0.22113203596E+02 -0.82168701018E+03  0.86742463742E+03  0.26291277663E+03 0.  0.
         25    1    4    4    0    0  0.48076900283E+02 -0.22279506436E+02 -0.47716203759E+03  0.49612385849E+03  0.12509000000E+03 0.  0.
         25    1    4    4    0    0  0.39352139591E+02  0.44392710031E+02 -0.34452497259E+03  0.37130077892E+03  0.12509000000E+03 0.  0.
         25    1    3    3    0    0 -0.87429039874E+02 -0.22113203596E+02 -0.47609843560E+03  0.50044985690E+03  0.12509000000E+03 0.  0.
<mgrwt>
<rscale>  2 0.43224249E+03</rscale>
<asrwt>0</asrwt>
<pdfrwt beam="1">  1       21 0.51536063E-02 0.43224249E+03</pdfrwt>
<pdfrwt beam="2">  1       21 0.19600442E+00 0.43224249E+03</pdfrwt>
<totfact> 0.32596677E+04</totfact>
</mgrwt>
</event>
<event>
 7    0  0.4709932E-002  0.4753962E+03  0.7546771E-02  0.1020408E+00
         21   -1    0    0  502  501  0.00000000000E+00  0.00000000000E+00  0.21190042278E+03  0.21190042278E+03  0.00000000000E+00 0.  1.
         21   -1    0    0  501  502 -0.00000000000E+00 -0.00000000000E+00 -0.26663648980E+03  0.26663648980E+03  0.00000000000E+00 0.  1.
      99926    2    1    2    0    0 -0.22204460493E-14  0.00000000000E+00 -0.54736067024E+02  0.47853691258E+03  0.47539619232E+03 0.  0.
      99925    2    3    3    0    0  0.19541447344E+01  0.11347878005E+03  0.32869904714E+02  0.28826456412E+03  0.26293492748E+03 0.  0.
         25    1    4    4    0    0 -0.25927280939E+02  0.24064028603E+02  0.19088678724E+02  0.13138944830E+03  0.12509000000E+03 0.  0.
         25    1    3    3    0    0 -0.19541447344E+01 -0.11347878005E+03 -0.87605971738E+02  0.19027234846E+03  0.12509000000E+03 0.  0.
         25    1    4    4    0    0  0.27881425673E+02  0.89414751450E+02  0.13781225990E+02  0.15687511582E+03  0.12509000000E+03 0.  0.
<mgrwt>
<rscale>  2 0.47539619E+03</rscale>
<asrwt>0</asrwt>
<pdfrwt beam="1">  1       21 0.31161827E-01 0.47539619E+03</pdfrwt>
<pdfrwt beam="2">  1       21 0.39211249E-01 0.47539619E+03</pdfrwt>
<totfact> 0.56998991E+04</totfact>
</mgrwt>
</event>
<event>
 7    0  0.4709932E-002  0.4570939E+03  0.7546771E-02  0.1025627E+00
         21   -1    0    0  502  501  0.00000000000E+00  0.00000000000E+00  0.10144335431E+03  0.10144335431E+03  0.00000000000E+00 0. -1.
         21   -1    0    0  501  502 -0.00000000000E+00 -0.00000000000E+00 -0.51490517220E+03  0.51490517220E+03  0.00000000000E+00 0. -1.
      99926    2    1    2    0    0 -0.44408920985E-15  0.71054273576E-14 -0.41346181790E+03  0.61634852651E+03  0.45709389765E+03 0.  0.
      99925    2    3    3    0    0  0.36924698738E+01 -0.51521660074E+02 -0.12090721360E+03  0.29400737123E+03  0.26297084296E+03 0.  0.
         25    1    3    3    0    0 -0.36924698738E+01  0.51521660074E+02 -0.29255460430E+03  0.32234115528E+03  0.12509000000E+03 0.  0.
         25    1    4    4    0    0 -0.35945405542E+00 -0.37905072331E+02 -0.19091185017E+02  0.13209430404E+03  0.12509000000E+03 0.  0.
         25    1    4    4    0    0  0.40519239293E+01 -0.13616587743E+02 -0.10181602858E+03  0.16191306718E+03  0.12509000000E+03 0.  0.
<mgrwt>
<rscale>  2 0.45709390E+03</rscale>
<asrwt>0</asrwt>
<pdfrwt beam="1">  1       21 0.14918140E-01 0.45709390E+03</pdfrwt>
<pdfrwt beam="2">  1       21 0.75721349E-01 0.45709390E+03</pdfrwt>
<totfact> 0.56738987E+04</totfact>
</mgrwt>
</event>
<event>
 7    0  0.4709932E-002  0.4546164E+03  0.7546771E-02  0.1026354E+00
         21   -1    0    0  502  501  0.00000000000E+00  0.00000000000E+00  0.92111100529E+02  0.92111100529E+02  0.00000000000E+00 0.  1.
         21   -1    0    0  501  502 -0.00000000000E+00 -0.00000000000E+00 -0.56094235012E+03  0.56094235012E+03  0.00000000000E+00 0.  1.
      99926    2    1    2    0    0  0.00000000000E+00  0.00000000000E+00 -0.46883124959E+03  0.65305345065E+03  0.45461639743E+03 0.  0.
      99925    2    3    3    0    0  0.10969923315E+03 -0.20664449020E+02 -0.31781190958E+03  0.42740928307E+03  0.26308429100E+03 0.  0.
         25    1    4    4    0    0  0.35131088084E+02 -0.11792394938E+02 -0.20495421165E+03  0.24295470957E+03  0.12509000000E+03 0.  0.
         25    1    3    3    0    0 -0.10969923315E+03  0.20664449020E+02 -0.15101934001E+03  0.22564416758E+03  0.12509000000E+03 0.  0.
         25    1    4    4    0    0  0.74568145064E+02 -0.88720540818E+01 -0.11285769793E+03  0.18445457350E+03  0.12509000000E+03 0.  0.
<mgrwt>
<rscale>  2 0.45461640E+03</rscale>
<asrwt>0</asrwt>
<pdfrwt beam="1">  1       21 0.13545751E-01 0.45461640E+03</pdfrwt>
<pdfrwt beam="2">  1       21 0.82491519E-01 0.45461640E+03</pdfrwt>
<totfact> 0.55694262E+04</totfact>
</mgrwt>
</event>
<event>
 7    0  0.4709932E-002  0.4883811E+03  0.7546771E-02  0.1016857E+00
         21   -1    0    0  502  501  0.00000000000E+00  0.00000000000E+00  0.14228604818E+03  0.14228604818E+03  0.00000000000E+00 0. -1.
         21   -1    0    0  501  502 -0.00000000000E+00 -0.00000000000E+00 -0.41907858961E+03  0.41907858961E+03  0.00000000000E+00 0. -1.
      99926    2    1    2    0    0  0.00000000000E+00  0.00000000000E+00 -0.27679254143E+03  0.56136463779E+03  0.48838114785E+03 0.  0.
      99925    2    3    3    0    0  0.78611785693E+02 -0.12198321852E+02 -0.33867656607E+02  0.27677964228E+03  0.26292839388E+03 0.  0.
         25    1    4    4    0    0  0.31354836373E+02 -0.15747833354E+02 -0.55499874628E+02  0.14127584437E+03  0.12509000000E+03 0.  0.
         25    1    4    4    0    0  0.47256949320E+02  0.35495115016E+01  0.21632218021E+02  0.13550379791E+03  0.12509000000E+03 0.  0.
         25    1    3    3    0    0 -0.78611785693E+02  0.12198321852E+02 -0.24292488482E+03  0.28458499551E+03  0.12509000000E+03 0.  0.
<mgrwt>
<rscale>  2 0.48838115E+03</rscale>
<asrwt>0</asrwt>
<pdfrwt beam="1">  1       21 0.20924419E-01 0.48838115E+03</pdfrwt>
<pdfrwt beam="2">  1       21 0.61629204E-01 0.48838115E+03</pdfrwt>
<totfact> 0.47320936E+04</totfact>
</mgrwt>
</event>
<event>
 7    0  0.4709932E-002  0.4587265E+03  0.7546771E-02  0.1025151E+00
         21   -1    0    0  502  501  0.00000000000E+00  0.00000000000E+00  0.28554179106E+03  0.28554179106E+03  0.00000000000E+00 0. -1.
         21   -1    0    0  501  502 -0.00000000000E+00 -0.00000000000E+00 -0.18423749108E+03  0.18423749108E+03  0.00000000000E+00 0. -1.
      99926    2    1    2    0    0  0.00000000000E+00  0.00000000000E+00  0.10130429999E+03  0.46977928214E+03  0.45872651191E+03 0.  0.
      99925    2    3    3    0    0  0.11492580933E+03  0.11395412294E+02  0.45910358775E+02  0.29074354857E+03  0.26284263909E+03 0.  0.
         25    1    4    4    0    0  0.23974637156E+02  0.23798912105E+02  0.23659724004E+01  0.12959273656E+03  0.12509000000E+03 0.  0.
         25    1    4    4    0    0  0.90951172173E+02 -0.12403499811E+02  0.43544386375E+02  0.16115081201E+03  0.12509000000E+03 0.  0.
         25    1    3    3    0    0 -0.11492580933E+03 -0.11395412294E+02  0.55393941211E+02  0.17903573357E+03  0.12509000000E+03 0.  0.
<mgrwt>
<rscale>  2 0.45872651E+03</rscale>
<asrwt>0</asrwt>
<pdfrwt beam="1">  1       21 0.41991440E-01 0.45872651E+03</pdfrwt>
<pdfrwt beam="2">  1       21 0.27093748E-01 0.45872651E+03</pdfrwt>
<totfact> 0.65494980E+04</totfact>
</mgrwt>
</event>
<event>
 7    0  0.4709932E-002  0.4578940E+03  0.7546771E-02  0.1025394E+00
         21   -1    0    0  502  501  0.00000000000E+00  0.00000000000E+00  0.10759549328E+03  0.10759549328E+03  0.00000000000E+00 0. -1.
         21   -1    0    0  501  502 -0.00000000000E+00 -0.00000000000E+00 -0.48716462946E+03  0.48716462946E+03  0.00000000000E+00 0. -1.
      99926    2    1    2    0    0  0.00000000000E+00  0.00000000000E+00 -0.37956913618E+03  0.59476012274E+03  0.45789395547E+03 0.  0.
      99925    2    3    3    0    0 -0.86001537353E+02 -0.38792432696E+02 -0.15178430804E+03  0.31829212587E+03  0.26338239114E+03 0.  0.
         25    1    4    4    0    0 -0.30359540050E+02 -0.56362986590E+02 -0.61719900726E+02  0.15347749729E+03  0.12509000000E+03 0.  0.
         25    1    4    4    0    0 -0.55641997303E+02  0.17570553894E+02 -0.90064407313E+02  0.16481462858E+03  0.12509000000E+03 0.  0.
         25    1    3    3    0    0  0.86001537353E+02  0.38792432696E+02 -0.22778482814E+03  0.27646799687E+03  0.12509000000E+03 0.  0.
<mgrwt>
<rscale>  2 0.45789396E+03</rscale>
<asrwt>0</asrwt>
<pdfrwt beam="1">  1       21 0.15822867E-01 0.45789396E+03</pdfrwt>
<pdfrwt beam="2">  1       21 0.71641858E-01 0.45789396E+03</pdfrwt>
<totfact> 0.57671668E+04</totfact>
</mgrwt>
</event>
<event>
 7    0  0.4709932E-002  0.4350347E+03  0.7546771E-02  0.1032281E+00
         21   -1    0    0  502  501  0.00000000000E+00  0.00000000000E+00  0.17217217289E+03  0.17217217289E+03  0.00000000000E+00 0. -1.
         21   -1    0    0  501  502 -0.00000000000E+00 -0.00000000000E+00 -0.27480517767E+03  0.27480517767E+03  0.00000000000E+00 0. -1.
      99926    2    1    2    0    0  0.00000000000E+00  0.00000000000E+00 -0.10263300478E+03  0.44697735056E+03  0.43503473222E+03 0.  0.
      99925    2    3    3    0    0 -0.84005070363E+02 -0.39301339859E+02 -0.56133271820E+02  0.28446218072E+03  0.26299494462E+03 0.  0.
         25    1    3    3    0    0  0.84005070363E+02  0.39301339859E+02 -0.46499732962E+02  0.16251516984E+03  0.12509000000E+03 0.  0.
         25    1    4    4    0    0 -0.29328657991E+02 -0.34462800747E+02 -0.64027871468E+02  0.14763106462E+03  0.12509000000E+03 0.  0.
         25    1    4    4    0    0 -0.54676412373E+02 -0.48385391116E+01  0.78945996474E+01  0.13683111610E+03  0.12509000000E+03 0.  0.
<mgrwt>
<rscale>  2 0.43503473E+03</rscale>
<asrwt>0</asrwt>
<pdfrwt beam="1">  1       21 0.25319437E-01 0.43503473E+03</pdfrwt>
<pdfrwt beam="2">  1       21 0.40412526E-01 0.43503473E+03</pdfrwt>
<totfact> 0.81321984E+04</totfact>
</mgrwt>
</event>
<event>
 7    0  0.4709932E-002  0.4555136E+03  0.7546771E-02  0.1026090E+00
         21   -1    0    0  502  501  0.00000000000E+00  0.00000000000E+00  0.11293256837E+03  0.11293256837E+03  0.00000000000E+00 0. -1.
         21   -1    0    0  501  502 -0.00000000000E+00 -0.00000000000E+00 -0.45932866401E+03  0.45932866401E+03  0.00000000000E+00 0. -1.
      99926    2    1    2    0    0 -0.71054273576E-14 -0.14210854715E-13 -0.34639609564E+03  0.57226123238E+03  0.45551362549E+03 0.  0.
      99925    2    3    3    0    0  0.51369051958E+02  0.93300836017E+02 -0.16799983364E+03  0.32973997580E+03  0.26298418590E+03 0.  0.
         25    1    4    4    0    0  0.35232316264E+02  0.86678608963E+02 -0.10801384051E+03  0.18991839090E+03  0.12509000000E+03 0.  0.
         25    1    4    4    0    0  0.16136735694E+02  0.66222270534E+01 -0.59985993129E+02  0.13982158489E+03  0.12509000000E+03 0.  0.
         25    1    3    3    0    0 -0.51369051958E+02 -0.93300836017E+02 -0.17839626200E+03  0.24252125659E+03  0.12509000000E+03 0.  0.
<mgrwt>
<rscale>  2 0.45551363E+03</rscale>
<asrwt>0</asrwt>
<pdfrwt beam="1">  1       21 0.16607731E-01 0.45551363E+03</pdfrwt>
<pdfrwt beam="2">  1       21 0.67548332E-01 0.45551363E+03</pdfrwt>
<totfact> 0.60174231E+04</totfact>
</mgrwt>
</event>
<event>
 7    0  0.4709932E-002  0.4529079E+03  0.7546771E-02  0.1026858E+00
         21   -1    0    0  502  501  0.00000000000E+00  0.00000000000E+00  0.62197160305E+03  0.62197160305E+03  0.00000000000E+00 0. -1.
         21   -1    0    0  501  502 -0.00000000000E+00 -0.00000000000E+00 -0.82449736804E+02  0.82449736804E+02  0.00000000000E+00 0. -1.
      99926    2    1    2    0    0  0.71054273576E-14  0.00000000000E+00  0.53952186625E+03  0.70442133986E+03  0.45290791546E+03 0.  0.
      99925    2    3    3    0    0 -0.56143960763E+02 -0.51364911415E+02  0.46540799833E+03  0.54031505731E+03  0.26371434885E+03 0.  0.
         25    1    4    4    0    0 -0.28465509159E+02 -0.22815391929E+01  0.15695212076E+03  0.20272386871E+03  0.12509000000E+03 0.  0.
         25    1    4    4    0    0 -0.27678451603E+02 -0.49083372222E+02  0.30845587757E+03  0.33759118860E+03  0.12509000000E+03 0.  0.
         25    1    3    3    0    0  0.56143960763E+02  0.51364911415E+02  0.74113867920E+02  0.16410628255E+03  0.12509000000E+03 0.  0.
<mgrwt>
<rscale>  2 0.45290792E+03</rscale>
<asrwt>0</asrwt>
<pdfrwt beam="1">  1       21 0.91466409E-01 0.45290792E+03</pdfrwt>
<pdfrwt beam="2">  1       21 0.12124962E-01 0.45290792E+03</pdfrwt>
<totfact> 0.53539511E+04</totfact>
</mgrwt>
</event>
<event>
 6    0  0.4709932E-002  0.4456578E+03  0.7546771E-02  0.1029025E+00
         21   -1    0    0  502  501  0.00000000000E+00  0.00000000000E+00  0.20661633028E+04  0.20661633028E+04  0.00000000000E+00 0. -1.
         21   -1    0    0  501  502 -0.00000000000E+00 -0.00000000000E+00 -0.24031360415E+02  0.24031360415E+02  0.00000000000E+00 0. -1.
      99926    2    1    2    0    0  0.00000000000E+00  0.14210854715E-13  0.20421319424E+04  0.20901946632E+04  0.44565778353E+03 0.  0.
         25    1    3    3    0    0 -0.13882175158E+02  0.96506313037E+02  0.71699730427E+03  0.73432882667E+03  0.12509000000E+03 0.  0.
         25    1    3    3    0    0 -0.28178213708E+01  0.14367902055E+01  0.66566282035E+03  0.67732156542E+03  0.12509000000E+03 0.  0.
         25    1    3    3    0    0  0.16699996529E+02 -0.97943103242E+02  0.65947181776E+03  0.67854427112E+03  0.12509000000E+03 0.  0.
<mgrwt>
<rscale>  2 0.44565778E+03</rscale>
<asrwt>0</asrwt>
<pdfrwt beam="1">  1       21 0.30384742E+00 0.44565778E+03</pdfrwt>
<pdfrwt beam="2">  1       21 0.35340250E-02 0.44565778E+03</pdfrwt>
<totfact> 0.13226265E+04</totfact>
</mgrwt>
</event>
<event>
 7    0  0.4709932E-002  0.4390713E+03  0.7546771E-02  0.1031032E+00
         21   -1    0    0  502  501  0.00000000000E+00  0.00000000000E+00  0.27992705030E+02  0.27992705030E+02  0.00000000000E+00 0. -1.
         21   -1    0    0  501  502 -0.00000000000E+00 -0.00000000000E+00 -0.17217311214E+04  0.17217311214E+04  0.00000000000E+00 0. -1.
      99926    2    1    2    0    0 -0.14210854715E-13 -0.71054273576E-14 -0.16937384164E+04  0.17497238264E+04  0.43907134465E+03 0.  0.
      99925    2    3    3    0    0 -0.71518251268E+02 -0.46267539084E+02 -0.89271876654E+03  0.93453333768E+03  0.26296428971E+03 0.  0.
         25    1    4    4    0    0 -0.51752233799E+02 -0.34798088721E+02 -0.58723791722E+03  0.60364317291E+03  0.12509000000E+03 0.  0.
         25    1    4    4    0    0 -0.19766017469E+02 -0.11469450364E+02 -0.30548084932E+03  0.33089016477E+03  0.12509000000E+03 0.  0.
         25    1    3    3    0    0  0.71518251268E+02  0.46267539084E+02 -0.80101964984E+03  0.81519048876E+03  0.12509000000E+03 0.  0.
<mgrwt>
<rscale>  2 0.43907134E+03</rscale>
<asrwt>0</asrwt>
<pdfrwt beam="1">  1       21 0.41165746E-02 0.43907134E+03</pdfrwt>
<pdfrwt beam="2">  1       21 0.25319573E+00 0.43907134E+03</pdfrwt>
<totfact> 0.20687986E+04</totfact>
</mgrwt>
</event>
<event>
 7    0  0.4709932E-002  0.4538110E+03  0.7546771E-02  0.1026592E+00
         21   -1    0    0  502  501  0.00000000000E+00  0.00000000000E+00  0.11472614441E+03  0.11472614441E+03  0.00000000000E+00 0. -1.
         21   -1    0    0  501  502 -0.00000000000E+00 -0.00000000000E+00 -0.44877386336E+03  0.44877386336E+03  0.00000000000E+00 0. -1.
      99926    2    1    2    0    0 -0.14210854715E-13  0.00000000000E+00 -0.33404771895E+03  0.56350000776E+03  0.45381095206E+03 0.  0.
      99925    2    3    3    0    0  0.10276454357E+03  0.11524670112E+02 -0.26383545728E+03  0.38666494555E+03  0.26307273170E+03 0.  0.
         25    1    3    3    0    0 -0.10276454357E+03 -0.11524670112E+02 -0.70212261672E+02  0.17683506221E+03  0.12509000000E+03 0.  0.
         25    1    4    4    0    0  0.34790999407E+02 -0.29244322670E+01 -0.75801848011E+02  0.15037418065E+03  0.12509000000E+03 0.  0.
         25    1    4    4    0    0  0.67973544167E+02  0.14449102379E+02 -0.18803360927E+03  0.23629076491E+03  0.12509000000E+03 0.  0.
<mgrwt>
<rscale>  2 0.45381095E+03</rscale>
<asrwt>0</asrwt>
<pdfrwt beam="1">  1       21 0.16871492E-01 0.45381095E+03</pdfrwt>
<pdfrwt beam="2">  1       21 0.65996157E-01 0.45381095E+03</pdfrwt>
<totfact> 0.61560030E+04</totfact>
</mgrwt>
</event>
<event>
 7    0  0.4709932E-002  0.4700692E+03  0.7546771E-02  0.1021901E+00
         21   -1    0    0  502  501  0.00000000000E+00  0.00000000000E+00  0.18237260748E+03  0.18237260748E+03  0.00000000000E+00 0. -1.
         21   -1    0    0  501  502 -0.00000000000E+00 -0.00000000000E+00 -0.30290323027E+03  0.30290323027E+03  0.00000000000E+00 0. -1.
      99926    2    1    2    0    0  0.00000000000E+00  0.00000000000E+00 -0.12053062279E+03  0.48527583775E+03  0.47006915202E+03 0.  0.
      99925    2    3    3    0    0  0.57010084361E+02  0.10193548598E+03 -0.24351837397E+02  0.28896266988E+03  0.26318324335E+03 0.  0.
         25    1    4    4    0    0  0.20333465867E+02  0.37655289196E+02 -0.50051542281E+02  0.14136490237E+03  0.12509000000E+03 0.  0.
         25    1    4    4    0    0  0.36676618494E+02  0.64280196781E+02  0.25699704883E+02  0.14759776751E+03  0.12509000000E+03 0.  0.
         25    1    3    3    0    0 -0.57010084361E+02 -0.10193548598E+03 -0.96178785390E+02  0.19631316787E+03  0.12509000000E+03 0.  0.
<mgrwt>
<rscale>  2 0.47006915E+03</rscale>
<asrwt>0</asrwt>
<pdfrwt beam="1">  1       21 0.26819501E-01 0.47006915E+03</pdfrwt>
<pdfrwt beam="2">  1       21 0.44544592E-01 0.47006915E+03</pdfrwt>
<totfact> 0.58946744E+04</totfact>
</mgrwt>
</event>
<event>
 7    0  0.4709932E-002  0.4538008E+03  0.7546771E-02  0.1026595E+00
         21   -1    0    0  502  501  0.00000000000E+00  0.00000000000E+00  0.31003765111E+03  0.31003765111E+03  0.00000000000E+00 0. -1.
         21   -1    0    0  501  502 -0.00000000000E+00 -0.00000000000E+00 -0.16605658539E+03  0.16605658539E+03  0.00000000000E+00 0. -1.
      99926    2    1    2    0    0  0.00000000000E+00  0.00000000000E+00  0.14398106572E+03  0.47609423650E+03  0.45380080955E+03 0.  0.
      99925    2    3    3    0    0  0.92997327270E+02  0.39566683762E+02  0.14143049648E+03  0.31525879623E+03  0.26300474887E+03 0.  0.
         25    1    4    4    0    0  0.71800217947E+02  0.24429191196E+02  0.11174420777E+03  0.18408240750E+03  0.12509000000E+03 0.  0.
         25    1    4    4    0    0  0.21197109322E+02  0.15137492566E+02  0.29686288703E+02  0.13117638874E+03  0.12509000000E+03 0.  0.
         25    1    3    3    0    0 -0.92997327270E+02 -0.39566683762E+02  0.25505692414E+01  0.16083544027E+03  0.12509000000E+03 0.  0.
<mgrwt>
<rscale>  2 0.45380081E+03</rscale>
<asrwt>0</asrwt>
<pdfrwt beam="1">  1       21 0.45593772E-01 0.45380081E+03</pdfrwt>
<pdfrwt beam="2">  1       21 0.24420086E-01 0.45380081E+03</pdfrwt>
<totfact> 0.67626865E+04</totfact>
</mgrwt>
</event>
<event>
 7    0  0.4709932E-002  0.4565357E+03  0.7546771E-02  0.1025791E+00
         21   -1    0    0  502  501  0.00000000000E+00  0.00000000000E+00  0.12409452074E+03  0.12409452074E+03  0.00000000000E+00 0. -1.
         21   -1    0    0  501  502 -0.00000000000E+00 -0.00000000000E+00 -0.41989135252E+03  0.41989135252E+03  0.00000000000E+00 0. -1.
      99926    2    1    2    0    0  0.14210854715E-13  0.00000000000E+00 -0.29579683178E+03  0.54398587327E+03  0.45653572108E+03 0.  0.
      99925    2    3    3    0    0  0.74020647004E+02  0.63255655729E+02 -0.11367437479E+03  0.30253933342E+03  0.26292175760E+03 0.  0.
         25    1    4    4    0    0  0.40839879923E+02  0.73177785587E+02 -0.59844251272E+02  0.16202384579E+03  0.12509000000E+03 0.  0.
         25    1    3    3    0    0 -0.74020647004E+02 -0.63255655729E+02 -0.18212245699E+03  0.24144653985E+03  0.12509000000E+03 0.  0.
         25    1    4    4    0    0  0.33180767081E+02 -0.99221298579E+01 -0.53830123517E+02  0.14051548763E+03  0.12509000000E+03 0.  0.
<mgrwt>
<rscale>  2 0.45653572E+03</rscale>
<asrwt>0</asrwt>
<pdfrwt beam="1">  1       21 0.18249194E-01 0.45653572E+03</pdfrwt>
<pdfrwt beam="2">  1       21 0.61748729E-01 0.45653572E+03</pdfrwt>
<totfact> 0.61514723E+04</totfact>
</mgrwt>
</event>
<event>
 7    0  0.4709932E-002  0.4401990E+03  0.7546771E-02  0.1030686E+00
         21   -1    0    0  502  501  0.00000000000E+00  0.00000000000E+00  0.50233271859E+02  0.50233271859E+02  0.00000000000E+00 0. -1.
         21   -1    0    0  501  502 -0.00000000000E+00 -0.00000000000E+00 -0.96437645433E+03  0.96437645433E+03  0.00000000000E+00 0. -1.
      99926    2    1    2    0    0  0.00000000000E+00 -0.71054273576E-14 -0.91414318247E+03  0.10146097262E+04  0.44019897594E+03 0.  0.
      99925    2    3    3    0    0 -0.53009293101E+02  0.53264567158E+02 -0.43374707147E+03  0.51253898333E+03  0.26251207240E+03 0.  0.
         25    1    4    4    0    0 -0.38543745940E+02 -0.10349197603E+02 -0.19113746435E+03  0.23189170882E+03  0.12509000000E+03 0.  0.
         25    1    4    4    0    0 -0.14465547161E+02  0.63613764761E+02 -0.24260960712E+03  0.28064727451E+03  0.12509000000E+03 0.  0.
         25    1    3    3    0    0  0.53009293101E+02 -0.53264567158E+02 -0.48039611100E+03  0.50207074285E+03  0.12509000000E+03 0.  0.
<mgrwt>
<rscale>  2 0.44019898E+03</rscale>
<asrwt>0</asrwt>
<pdfrwt beam="1">  1       21 0.73872464E-02 0.44019898E+03</pdfrwt>
<pdfrwt beam="2">  1       21 0.14182006E+00 0.44019898E+03</pdfrwt>
<totfact> 0.43407016E+04</totfact>
</mgrwt>
</event>
<event>
 7    0  0.4709932E-002  0.4476969E+03  0.7546771E-02  0.1028411E+00
         21   -1    0    0  502  501  0.00000000000E+00  0.00000000000E+00  0.46079578840E+03  0.46079578840E+03  0.00000000000E+00 0.  1.
         21   -1    0    0  501  502 -0.00000000000E+00 -0.00000000000E+00 -0.10874259792E+03  0.10874259792E+03  0.00000000000E+00 0.  1.
      99926    2    1    2    0    0  0.35527136788E-14  0.00000000000E+00  0.35205319049E+03  0.56953838632E+03  0.44769691149E+03 0.  0.
      99925    2    3    3    0    0  0.16718642397E+02  0.29892072254E+02  0.95228613784E+02  0.28182425687E+03  0.26302732537E+03 0.  0.
         25    1    4    4    0    0  0.18647980831E+02 -0.24504226142E+02  0.45444972303E+02  0.13660511665E+03  0.12509000000E+03 0.  0.
         25    1    3    3    0    0 -0.16718642397E+02 -0.29892072254E+02  0.25682457670E+03  0.28771412945E+03  0.12509000000E+03 0.  0.
         25    1    4    4    0    0 -0.19293384345E+01  0.54396298396E+02  0.49783641481E+02  0.14521914022E+03  0.12509000000E+03 0.  0.
<mgrwt>
<rscale>  2 0.44769691E+03</rscale>
<asrwt>0</asrwt>
<pdfrwt beam="1">  1       21 0.67764086E-01 0.44769691E+03</pdfrwt>
<pdfrwt beam="2">  1       21 0.15991559E-01 0.44769691E+03</pdfrwt>
<totfact> 0.64222930E+04</totfact>
</mgrwt>
</event>
<event>
 7    0  0.4709932E-002  0.4488964E+03  0.7546771E-02  0.1028052E+00
         21   -1    0    0  502  501  0.00000000000E+00  0.00000000000E+00  0.57855495188E+02  0.57855495188E+02  0.00000000000E+00 0.  1.
         21   -1    0    0  501  502 -0.00000000000E+00 -0.00000000000E+00 -0.87073813075E+03  0.87073813075E+03  0.00000000000E+00 0.  1.
      99926    2    1    2    0    0  0.71054273576E-14  0.00000000000E+00 -0.81288263557E+03  0.92859362594E+03  0.44889636102E+03 0.  0.
      99925    2    3    3    0    0  0.56848673420E+02 -0.81340246308E+02 -0.42990112065E+03  0.51365946706E+03  0.26302674242E+03 0.  0.
         25    1    4    4    0    0  0.53462573547E+02 -0.36439738403E+02 -0.27912445844E+03  0.31264048475E+03  0.12509000000E+03 0.  0.
         25    1    4    4    0    0  0.33860998731E+01 -0.44900507905E+02 -0.15077666221E+03  0.20101898231E+03  0.12509000000E+03 0.  0.
         25    1    3    3    0    0 -0.56848673420E+02  0.81340246308E+02 -0.38298151492E+03  0.41493415888E+03  0.12509000000E+03 0.  0.
<mgrwt>
<rscale>  2 0.44889636E+03</rscale>
<asrwt>0</asrwt>
<pdfrwt beam="1">  1       21 0.85081614E-02 0.44889636E+03</pdfrwt>
<pdfrwt beam="2">  1       21 0.12804972E+00 0.44889636E+03</pdfrwt>
<totfact> 0.44087418E+04</totfact>
</mgrwt>
</event>
<event>
 7    0  0.4709932E-002  0.4547049E+03  0.7546771E-02  0.1026328E+00
         21   -1    0    0  502  501  0.00000000000E+00  0.00000000000E+00  0.66137052082E+03  0.66137052082E+03  0.00000000000E+00 0.  1.
         21   -1    0    0  501  502 -0.00000000000E+00 -0.00000000000E+00 -0.78154571753E+02  0.78154571753E+02  0.00000000000E+00 0.  1.
      99926    2    1    2    0    0  0.00000000000E+00  0.00000000000E+00  0.58321594907E+03  0.73952509257E+03  0.45470487055E+03 0.  0.
      99925    2    3    3    0    0 -0.10704387377E+03 -0.24431135859E+01  0.42585923179E+03  0.51176863429E+03  0.26284347059E+03 0.  0.
         25    1    4    4    0    0 -0.66802888288E+02  0.27572621732E+02  0.26573873091E+03  0.30246893486E+03  0.12509000000E+03 0.  0.
         25    1    4    4    0    0 -0.40240985481E+02 -0.30015735318E+02  0.16012050088E+03  0.20929969943E+03  0.12509000000E+03 0.  0.
         25    1    3    3    0    0  0.10704387377E+03  0.24431135859E+01  0.15735671728E+03  0.22775645828E+03  0.12509000000E+03 0.  0.
<mgrwt>
<rscale>  2 0.45470487E+03</rscale>
<asrwt>0</asrwt>
<pdfrwt beam="1">  1       21 0.97260368E-01 0.45470487E+03</pdfrwt>
<pdfrwt beam="2">  1       21 0.11493320E-01 0.45470487E+03</pdfrwt>
<totfact> 0.50927044E+04</totfact>
</mgrwt>
</event>
<event>
 7    0  0.4709932E-002  0.4676112E+03  0.7546771E-02  0.1022597E+00
         21   -1    0    0  502  501  0.00000000000E+00  0.00000000000E+00  0.31614365319E+03  0.31614365319E+03  0.00000000000E+00 0.  1.
         21   -1    0    0  501  502 -0.00000000000E+00 -0.00000000000E+00 -0.17291208598E+03  0.17291208598E+03  0.00000000000E+00 0.  1.
      99926    2    1    2    0    0  0.00000000000E+00  0.00000000000E+00  0.14323156722E+03  0.48905573917E+03  0.46761119979E+03 0.  0.
      99925    2    3    3    0    0  0.12100121520E+03 -0.11768579687E+02  0.11793618067E+03  0.31279695718E+03  0.26296996057E+03 0.  0.
         25    1    3    3    0    0 -0.12100121520E+03  0.11768579687E+02  0.25295386546E+02  0.17625878199E+03  0.12509000000E+03 0.  0.
         25    1    4    4    0    0  0.21169499163E+02 -0.23074508487E+02  0.45262700884E+02  0.13666309241E+03  0.12509000000E+03 0.  0.
         25    1    4    4    0    0  0.99831716039E+02  0.11305928800E+02  0.72673479786E+02  0.17613386477E+03  0.12509000000E+03 0.  0.
<mgrwt>
<rscale>  2 0.46761120E+03</rscale>
<asrwt>0</asrwt>
<pdfrwt beam="1">  1       21 0.46491714E-01 0.46761120E+03</pdfrwt>
<pdfrwt beam="2">  1       21 0.25428248E-01 0.46761120E+03</pdfrwt>
<totfact> 0.59829345E+04</totfact>
</mgrwt>
</event>
<event>
 7    0  0.4709932E-002  0.4515324E+03  0.7546771E-02  0.1027266E+00
         21   -1    0    0  502  501  0.00000000000E+00  0.00000000000E+00  0.40210058415E+03  0.40210058415E+03  0.00000000000E+00 0. -1.
         21   -1    0    0  501  502 -0.00000000000E+00 -0.00000000000E+00 -0.12676027042E+03  0.12676027042E+03  0.00000000000E+00 0. -1.
      99926    2    1    2    0    0  0.00000000000E+00  0.00000000000E+00  0.27534031372E+03  0.52886085457E+03  0.45153240762E+03 0.  0.
      99925    2    3    3    0    0 -0.25411445239E+02  0.80682036521E+02  0.91819075289E+02  0.29119957118E+03  0.26308005455E+03 0.  0.
         25    1    4    4    0    0 -0.72429908969E+01  0.81907005049E+02  0.55831204966E+02  0.15976811303E+03  0.12509000000E+03 0.  0.
         25    1    4    4    0    0 -0.18168454343E+02 -0.12249685277E+01  0.35987870323E+02  0.13143145815E+03  0.12509000000E+03 0.  0.
         25    1    3    3    0    0  0.25411445239E+02 -0.80682036521E+02  0.18352123843E+03  0.23766128339E+03  0.12509000000E+03 0.  0.
<mgrwt>
<rscale>  2 0.45153241E+03</rscale>
<asrwt>0</asrwt>
<pdfrwt beam="1">  1       21 0.59132438E-01 0.45153241E+03</pdfrwt>
<pdfrwt beam="2">  1       21 0.18641216E-01 0.45153241E+03</pdfrwt>
<totfact> 0.65052771E+04</totfact>
</mgrwt>
</event>
<event>
 7    0  0.4709932E-002  0.4390661E+03  0.7546771E-02  0.1031034E+00
         21   -1    0    0  502  501  0.00000000000E+00  0.00000000000E+00  0.18185442196E+03  0.18185442196E+03  0.00000000000E+00 0.  1.
         21   -1    0    0  501  502 -0.00000000000E+00 -0.00000000000E+00 -0.26501838491E+03  0.26501838491E+03  0.00000000000E+00 0.  1.
      99926    2    1    2    0    0 -0.14210854715E-13  0.17763568394E-14 -0.83163962952E+02  0.44687280687E+03  0.43906612348E+03 0.  0.
      99925    2    3    3    0    0 -0.91416615602E+02 -0.13066613919E+02 -0.21452524678E+02  0.27958998133E+03  0.26302587864E+03 0.  0.
         25    1    4    4    0    0 -0.64416609681E+02  0.13187536279E+02 -0.41818126823E+02  0.14737596326E+03  0.12509000000E+03 0.  0.
         25    1    3    3    0    0  0.91416615602E+02  0.13066613919E+02 -0.61711438274E+02  0.16728282554E+03  0.12509000000E+03 0.  0.
         25    1    4    4    0    0 -0.27000005921E+02 -0.26254150198E+02  0.20365602146E+02  0.13221401807E+03  0.12509000000E+03 0.  0.
<mgrwt>
<rscale>  2 0.43906612E+03</rscale>
<asrwt>0</asrwt>
<pdfrwt beam="1">  1       21 0.26743298E-01 0.43906612E+03</pdfrwt>
<pdfrwt beam="2">  1       21 0.38973291E-01 0.43906612E+03</pdfrwt>
<totfact> 0.78677062E+04</totfact>
</mgrwt>
</event>
<event>
 7    0  0.4709932E-002  0.4559765E+03  0.7546771E-02  0.1025955E+00
         21   -1    0    0  502  501  0.00000000000E+00  0.00000000000E+00  0.12725597889E+03  0.12725597889E+03  0.00000000000E+00 0. -1.
         21   -1    0    0  501  502 -0.00000000000E+00 -0.00000000000E+00 -0.40845734280E+03  0.40845734280E+03  0.00000000000E+00 0. -1.
      99926    2    1    2    0    0 -0.71054273576E-14  0.00000000000E+00 -0.28120136391E+03  0.53571332170E+03  0.45597648621E+03 0.  0.
      99925    2    3    3    0    0  0.35997127296E+02  0.49795577779E+02 -0.29031322257E+03  0.39604970150E+03  0.26229412140E+03 0.  0.
         25    1    4    4    0    0  0.52184832713E+00  0.39098873985E+02 -0.97943710026E+02  0.16361379131E+03  0.12509000000E+03 0.  0.
         25    1    4    4    0    0  0.35475278969E+02  0.10696703794E+02 -0.19236951254E+03  0.23243591019E+03  0.12509000000E+03 0.  0.
         25    1    3    3    0    0 -0.35997127296E+02 -0.49795577779E+02  0.91118586545E+01  0.13966362020E+03  0.12509000000E+03 0.  0.
<mgrwt>
<rscale>  2 0.45597649E+03</rscale>
<asrwt>0</asrwt>
<pdfrwt beam="1">  1       21 0.18714115E-01 0.45597649E+03</pdfrwt>
<pdfrwt beam="2">  1       21 0.60067256E-01 0.45597649E+03</pdfrwt>
<totfact> 0.62337386E+04</totfact>
</mgrwt>
</event>
<event>
 7    0  0.4709932E-002  0.4555275E+03  0.7546771E-02  0.1026086E+00
         21   -1    0    0  502  501  0.00000000000E+00  0.00000000000E+00  0.13736348120E+03  0.13736348120E+03  0.00000000000E+00 0.  1.
         21   -1    0    0  501  502 -0.00000000000E+00 -0.00000000000E+00 -0.37765739884E+03  0.37765739884E+03  0.00000000000E+00 0.  1.
      99926    2    1    2    0    0 -0.14210854715E-13  0.00000000000E+00 -0.24029391763E+03  0.51502088004E+03  0.45552754036E+03 0.  0.
      99925    2    3    3    0    0  0.94213930550E+02  0.63287685238E+02 -0.13890418754E+03  0.31802092755E+03  0.26260491472E+03 0.  0.
         25    1    4    4    0    0  0.70980241797E+02  0.43914840979E+02 -0.39713396731E+02  0.15553575140E+03  0.12509000000E+03 0.  0.
         25    1    4    4    0    0  0.23233688752E+02  0.19372844258E+02 -0.99190790812E+02  0.16248517615E+03  0.12509000000E+03 0.  0.
         25    1    3    3    0    0 -0.94213930550E+02 -0.63287685238E+02 -0.10138973009E+03  0.19699995249E+03  0.12509000000E+03 0.  0.
<mgrwt>
<rscale>  2 0.45552754E+03</rscale>
<asrwt>0</asrwt>
<pdfrwt beam="1">  1       21 0.20200512E-01 0.45552754E+03</pdfrwt>
<pdfrwt beam="2">  1       21 0.55537852E-01 0.45552754E+03</pdfrwt>
<totfact> 0.63959608E+04</totfact>
</mgrwt>
</event>
<event>
 7    0  0.4709932E-002  0.5088077E+03  0.7546771E-02  0.1011505E+00
         21   -1    0    0  502  501  0.00000000000E+00  0.00000000000E+00  0.20641056050E+03  0.20641056050E+03  0.00000000000E+00 0.  1.
         21   -1    0    0  501  502 -0.00000000000E+00 -0.00000000000E+00 -0.31355628663E+03  0.31355628663E+03  0.00000000000E+00 0.  1.
      99926    2    1    2    0    0 -0.14210854715E-13  0.66613381478E-15 -0.10714572613E+03  0.51996684714E+03  0.50880773923E+03 0.  0.
      99925    2    3    3    0    0 -0.10909760026E+03  0.15258973630E+01  0.52532411127E+02  0.28964266177E+03  0.26311328844E+03 0.  0.
         25    1    3    3    0    0  0.10909760026E+03 -0.15258973630E+01 -0.15967813726E+03  0.23032418536E+03  0.12509000000E+03 0.  0.
         25    1    4    4    0    0 -0.86881944655E+02  0.27270067028E+02  0.20161197507E+02  0.15603240320E+03  0.12509000000E+03 0.  0.
         25    1    4    4    0    0 -0.22215655607E+02 -0.25744169665E+02  0.32371213619E+02  0.13361025858E+03  0.12509000000E+03 0.  0.
<mgrwt>
<rscale>  2 0.50880774E+03</rscale>
<asrwt>0</asrwt>
<pdfrwt beam="1">  1       21 0.30354495E-01 0.50880774E+03</pdfrwt>
<pdfrwt beam="2">  1       21 0.46111218E-01 0.50880774E+03</pdfrwt>
<totfact> 0.42576471E+04</totfact>
</mgrwt>
</event>
<event>
 7    0  0.4709932E-002  0.4466432E+03  0.7546771E-02  0.1028728E+00
         21   -1    0    0  502  501  0.00000000000E+00  0.00000000000E+00  0.56582161366E+02  0.56582161366E+02  0.00000000000E+00 0. -1.
         21   -1    0    0  501  502 -0.00000000000E+00 -0.00000000000E+00 -0.88141787964E+03  0.88141787964E+03  0.00000000000E+00 0. -1.
      99926    2    1    2    0    0  0.00000000000E+00  0.00000000000E+00 -0.82483571827E+03  0.93800004100E+03  0.44664316270E+03 0.  0.
      99925    2    3    3    0    0 -0.17712999147E+02  0.63263303837E+02 -0.69527090930E+03  0.74629572761E+03  0.26313433788E+03 0.  0.
         25    1    4    4    0    0 -0.53461666302E+01  0.34678574655E+01 -0.41290023768E+03  0.43147968887E+03  0.12509000000E+03 0.  0.
         25    1    4    4    0    0 -0.12366832517E+02  0.59795446371E+02 -0.28237067162E+03  0.31481603874E+03  0.12509000000E+03 0.  0.
         25    1    3    3    0    0  0.17712999147E+02 -0.63263303837E+02 -0.12956480897E+03  0.19170431340E+03  0.12509000000E+03 0.  0.
<mgrwt>
<rscale>  2 0.44664316E+03</rscale>
<asrwt>0</asrwt>
<pdfrwt beam="1">  1       21 0.83209066E-02 0.44664316E+03</pdfrwt>
<pdfrwt beam="2">  1       21 0.12962027E+00 0.44664316E+03</pdfrwt>
<totfact> 0.44466382E+04</totfact>
</mgrwt>
</event>
<event>
 7    0  0.4709932E-002  0.4590860E+03  0.7546771E-02  0.1025047E+00
         21   -1    0    0  502  501  0.00000000000E+00  0.00000000000E+00  0.34088891720E+03  0.34088891720E+03  0.00000000000E+00 0.  1.
         21   -1    0    0  501  502 -0.00000000000E+00 -0.00000000000E+00 -0.15456647076E+03  0.15456647076E+03  0.00000000000E+00 0.  1.
      99926    2    1    2    0    0  0.00000000000E+00  0.00000000000E+00  0.18632244644E+03  0.49545538796E+03  0.45908603487E+03 0.  0.
      99925    2    3    3    0    0  0.50821360020E+02 -0.87757867607E+02  0.53879152015E+02  0.28695361747E+03  0.26297368993E+03 0.  0.
         25    1    3    3    0    0 -0.50821360020E+02  0.87757867607E+02  0.13244329443E+03  0.20850177050E+03  0.12509000000E+03 0.  0.
         25    1    4    4    0    0  0.45960801729E+02 -0.51171847909E+02 -0.72083628362E+01  0.14293502688E+03  0.12509000000E+03 0.  0.
         25    1    4    4    0    0  0.48605582903E+01 -0.36586019698E+02  0.61087514851E+02  0.14401859059E+03  0.12509000000E+03 0.  0.
<mgrwt>
<rscale>  2 0.45908603E+03</rscale>
<asrwt>0</asrwt>
<pdfrwt beam="1">  1       21 0.50130723E-01 0.45908603E+03</pdfrwt>
<pdfrwt beam="2">  1       21 0.22730363E-01 0.45908603E+03</pdfrwt>
<totfact> 0.63506014E+04</totfact>
</mgrwt>
</event>
<event>
 7    0  0.4709932E-002  0.4557713E+03  0.7546771E-02  0.1026015E+00
         21   -1    0    0  502  501  0.00000000000E+00  0.00000000000E+00  0.23004076502E+03  0.23004076502E+03  0.00000000000E+00 0. -1.
         21   -1    0    0  501  502 -0.00000000000E+00 -0.00000000000E+00 -0.22575076465E+03  0.22575076465E+03  0.00000000000E+00 0. -1.
      99926    2    1    2    0    0  0.00000000000E+00  0.14210854715E-13  0.42900003660E+01  0.45579152968E+03  0.45577134006E+03 0.  0.
      99925    2    3    3    0    0  0.58165271001E+02  0.97918639803E+02 -0.21229179252E+01  0.28649920146E+03  0.26288025199E+03 0.  0.
         25    1    4    4    0    0  0.61329841539E+02  0.71431817637E+02  0.15760883385E+02  0.15735236757E+03  0.12509000000E+03 0.  0.
         25    1    4    4    0    0 -0.31645705378E+01  0.26486822166E+02 -0.17883801310E+02  0.12914683389E+03  0.12509000000E+03 0.  0.
         25    1    3    3    0    0 -0.58165271001E+02 -0.97918639803E+02  0.64129182912E+01  0.16929232822E+03  0.12509000000E+03 0.  0.
<mgrwt>
<rscale>  2 0.45577134E+03</rscale>
<asrwt>0</asrwt>
<pdfrwt beam="1">  1       21 0.33829524E-01 0.45577134E+03</pdfrwt>
<pdfrwt beam="2">  1       21 0.33198642E-01 0.45577134E+03</pdfrwt>
<totfact> 0.68067954E+04</totfact>
</mgrwt>
</event>
<event>
 7    0  0.4709932E-002  0.4407729E+03  0.7546771E-02  0.1030510E+00
         21   -1    0    0  502  501  0.00000000000E+00  0.00000000000E+00  0.70509701084E+03  0.70509701084E+03  0.00000000000E+00 0. -1.
         21   -1    0    0  501  502 -0.00000000000E+00 -0.00000000000E+00 -0.68884410222E+02  0.68884410222E+02  0.00000000000E+00 0. -1.
      99926    2    1    2    0    0  0.00000000000E+00 -0.14210854715E-13  0.63621260062E+03  0.77398142107E+03  0.44077291995E+03 0.  0.
      99925    2    3    3    0    0  0.20057457695E+02 -0.96733866256E+02  0.41647811307E+03  0.50252148736E+03  0.26327568080E+03 0.  0.
         25    1    4    4    0    0  0.30884305798E+02 -0.77429759369E+02  0.18397972385E+03  0.23758210132E+03  0.12509000000E+03 0.  0.
         25    1    4    4    0    0 -0.10826848103E+02 -0.19304106887E+02  0.23249838922E+03  0.26493938603E+03  0.12509000000E+03 0.  0.
         25    1    3    3    0    0 -0.20057457695E+02  0.96733866256E+02  0.21973448755E+03  0.27145993371E+03  0.12509000000E+03 0.  0.
<mgrwt>
<rscale>  2 0.44077292E+03</rscale>
<asrwt>0</asrwt>
<pdfrwt beam="1">  1       21 0.10369073E+00 0.44077292E+03</pdfrwt>
<pdfrwt beam="2">  1       21 0.10130061E-01 0.44077292E+03</pdfrwt>
<totfact> 0.54931789E+04</totfact>
</mgrwt>
</event>
<event>
 7    0  0.4709932E-002  0.4528920E+03  0.7546771E-02  0.1026863E+00
         21   -1    0    0  502  501  0.00000000000E+00  0.00000000000E+00  0.29248262704E+03  0.29248262704E+03  0.00000000000E+00 0.  1.
         21   -1    0    0  501  502 -0.00000000000E+00 -0.00000000000E+00 -0.17531911199E+03  0.17531911199E+03  0.00000000000E+00 0.  1.
      99926    2    1    2    0    0 -0.17763568394E-14  0.00000000000E+00  0.11716351505E+03  0.46780173902E+03  0.45289201558E+03 0.  0.
      99925    2    3    3    0    0 -0.88393053009E+01  0.10563079071E+03  0.10834343565E+03  0.30360277689E+03  0.26305959177E+03 0.  0.
         25    1    4    4    0    0  0.30109384251E+02  0.69498590787E+02  0.71587431121E+02  0.16281553223E+03  0.12509000000E+03 0.  0.
         25    1    4    4    0    0 -0.38948689552E+02  0.36132199927E+02  0.36756004532E+02  0.14078724466E+03  0.12509000000E+03 0.  0.
         25    1    3    3    0    0  0.88393053009E+01 -0.10563079071E+03  0.88200794000E+01  0.16419896213E+03  0.12509000000E+03 0.  0.
<mgrwt>
<rscale>  2 0.45289202E+03</rscale>
<asrwt>0</asrwt>
<pdfrwt beam="1">  1       21 0.43012151E-01 0.45289202E+03</pdfrwt>
<pdfrwt beam="2">  1       21 0.25782222E-01 0.45289202E+03</pdfrwt>
<totfact> 0.68741924E+04</totfact>
</mgrwt>
</event>
<event>
 7    0  0.4709932E-002  0.4543024E+03  0.7546771E-02  0.1026447E+00
         21   -1    0    0  502  501  0.00000000000E+00  0.00000000000E+00  0.87037844441E+02  0.87037844441E+02  0.00000000000E+00 0. -1.
         21   -1    0    0  501  502 -0.00000000000E+00 -0.00000000000E+00 -0.59281870283E+03  0.59281870283E+03  0.00000000000E+00 0. -1.
      99926    2    1    2    0    0  0.35527136788E-14  0.00000000000E+00 -0.50578085839E+03  0.67985654727E+03  0.45430237525E+03 0.  0.
      99925    2    3    3    0    0  0.29894489245E+02 -0.10661157393E+03 -0.28903679680E+03  0.40620493570E+03  0.26305982532E+03 0.  0.
         25    1    4    4    0    0  0.55055282373E+02 -0.46768669644E+02 -0.14925652594E+03  0.20770992084E+03  0.12509000000E+03 0.  0.
         25    1    4    4    0    0 -0.25160793129E+02 -0.59842904283E+02 -0.13978027086E+03  0.19849501486E+03  0.12509000000E+03 0.  0.
         25    1    3    3    0    0 -0.29894489245E+02  0.10661157393E+03 -0.21674406159E+03  0.27365161158E+03  0.12509000000E+03 0.  0.
<mgrwt>
<rscale>  2 0.45430238E+03</rscale>
<asrwt>0</asrwt>
<pdfrwt beam="1">  1       21 0.12799684E-01 0.45430238E+03</pdfrwt>
<pdfrwt beam="2">  1       21 0.87179217E-01 0.45430238E+03</pdfrwt>
<totfact> 0.54308467E+04</totfact>
</mgrwt>
</event>
<event>
 7    0  0.4709932E-002  0.4627041E+03  0.7546771E-02  0.1024000E+00
         21   -1    0    0  502  501  0.00000000000E+00  0.00000000000E+00  0.12375936608E+03  0.12375936608E+03  0.00000000000E+00 0.  1.
         21   -1    0    0  501  502 -0.00000000000E+00 -0.00000000000E+00 -0.43248251102E+03  0.43248251102E+03  0.00000000000E+00 0.  1.
      99926    2    1    2    0    0 -0.17763568394E-14  0.00000000000E+00 -0.30872314494E+03  0.55624187710E+03  0.46270405835E+03 0.  0.
      99925    2    3    3    0    0 -0.96147287230E+01 -0.54418594601E+02 -0.64610193265E+02  0.27643396491E+03  0.26303504222E+03 0.  0.
         25    1    3    3    0    0  0.96147287230E+01  0.54418594601E+02 -0.24411295168E+03  0.27980791219E+03  0.12509000000E+03 0.  0.
         25    1    4    4    0    0 -0.39750870705E+02 -0.47213636706E+02 -0.25867571708E+02  0.14186577663E+03  0.12509000000E+03 0.  0.
         25    1    4    4    0    0  0.30136141982E+02 -0.72049578949E+01 -0.38742621556E+02  0.13456818828E+03  0.12509000000E+03 0.  0.
<mgrwt>
<rscale>  2 0.46270406E+03</rscale>
<asrwt>0</asrwt>
<pdfrwt beam="1">  1       21 0.18199907E-01 0.46270406E+03</pdfrwt>
<pdfrwt beam="2">  1       21 0.63600368E-01 0.46270406E+03</pdfrwt>
<totfact> 0.57848859E+04</totfact>
</mgrwt>
</event>
<event>
 7    0  0.4709932E-002  0.4528204E+03  0.7546771E-02  0.1026884E+00
         21   -1    0    0  502  501  0.00000000000E+00  0.00000000000E+00  0.14584506536E+04  0.14584506536E+04  0.00000000000E+00 0.  1.
         21   -1    0    0  501  502 -0.00000000000E+00 -0.00000000000E+00 -0.35147976641E+02  0.35147976641E+02  0.00000000000E+00 0.  1.
      99926    2    1    2    0    0 -0.14210854715E-13  0.00000000000E+00  0.14233026770E+04  0.14935986303E+04  0.45282044788E+03 0.  0.
      99925    2    3    3    0    0 -0.83964100133E+02 -0.67227955232E+02  0.98895886325E+03  0.10289787591E+04  0.26303628143E+03 0.  0.
         25    1    3    3    0    0  0.83964100133E+02  0.67227955232E+02  0.43434381373E+03  0.46461987119E+03  0.12509000000E+03 0.  0.
         25    1    4    4    0    0 -0.35015393948E+01 -0.40041811150E+02  0.40595815477E+03  0.42669091734E+03  0.12509000000E+03 0.  0.
         25    1    4    4    0    0 -0.80462560738E+02 -0.27186144082E+02  0.58300070848E+03  0.60228784174E+03  0.12509000000E+03 0.  0.
<mgrwt>
<rscale>  2 0.45282045E+03</rscale>
<asrwt>0</asrwt>
<pdfrwt beam="1">  1       21 0.21447800E+00 0.45282045E+03</pdfrwt>
<pdfrwt beam="2">  1       21 0.51688211E-02 0.45282045E+03</pdfrwt>
<totfact> 0.24346023E+04</totfact>
</mgrwt>
</event>
<event>
 7    0  0.4709932E-002  0.4583840E+03  0.7546771E-02  0.1025251E+00
         21   -1    0    0  502  501  0.00000000000E+00  0.00000000000E+00  0.15294550419E+03  0.15294550419E+03  0.00000000000E+00 0. -1.
         21   -1    0    0  501  502 -0.00000000000E+00 -0.00000000000E+00 -0.34344892735E+03  0.34344892735E+03  0.00000000000E+00 0. -1.
      99926    2    1    2    0    0  0.14210854715E-13  0.00000000000E+00 -0.19050342316E+03  0.49639443155E+03  0.45838398471E+03 0.  0.
      99925    2    3    3    0    0 -0.11138790907E+03  0.32502485376E+02 -0.11075664758E+03  0.30805767423E+03  0.26299965366E+03 0.  0.
         25    1    4    4    0    0 -0.90831556901E+02  0.18936046233E+02 -0.34566073320E+02  0.15953453263E+03  0.12509000000E+03 0.  0.
         25    1    3    3    0    0  0.11138790907E+03 -0.32502485376E+02 -0.79746775575E+02  0.18833675732E+03  0.12509000000E+03 0.  0.
         25    1    4    4    0    0 -0.20556352164E+02  0.13566439142E+02 -0.76190574263E+02  0.14852314160E+03  0.12509000000E+03 0.  0.
<mgrwt>
<rscale>  2 0.45838398E+03</rscale>
<asrwt>0</asrwt>
<pdfrwt beam="1">  1       21 0.22491986E-01 0.45838398E+03</pdfrwt>
<pdfrwt beam="2">  1       21 0.50507195E-01 0.45838398E+03</pdfrwt>
<totfact> 0.63793657E+04</totfact>
</mgrwt>
</event>
<event>
 7    0  0.4709932E-002  0.4529186E+03  0.7546771E-02  0.1026855E+00
         21   -1    0    0  502  501  0.00000000000E+00  0.00000000000E+00  0.28570499161E+03  0.28570499161E+03  0.00000000000E+00 0.  1.
         21   -1    0    0  501  502 -0.00000000000E+00 -0.00000000000E+00 -0.17949917252E+03  0.17949917252E+03  0.00000000000E+00 0.  1.
      99926    2    1    2    0    0  0.14210854715E-13 -0.71054273576E-14  0.10620581910E+03  0.46520416413E+03  0.45291857802E+03 0.  0.
      99925    2    3    3    0    0  0.94648922478E+02 -0.55284032742E+02  0.47298108867E+02  0.28876049259E+03  0.26292730587E+03 0.  0.
         25    1    4    4    0    0  0.11775466948E+02 -0.20914501881E+02  0.44098334861E+02  0.13478964815E+03  0.12509000000E+03 0.  0.
         25    1    3    3    0    0 -0.94648922478E+02  0.55284032742E+02  0.58907710229E+02  0.17644367154E+03  0.12509000000E+03 0.  0.
         25    1    4    4    0    0  0.82873455529E+02 -0.34369530861E+02  0.31997740065E+01  0.15397084444E+03  0.12509000000E+03 0.  0.
<mgrwt>
<rscale>  2 0.45291858E+03</rscale>
<asrwt>0</asrwt>
<pdfrwt beam="1">  1       21 0.42015440E-01 0.45291858E+03</pdfrwt>
<pdfrwt beam="2">  1       21 0.26396937E-01 0.45291858E+03</pdfrwt>
<totfact> 0.68925271E+04</totfact>
</mgrwt>
</event>
<event>
 7    0  0.4709932E-002  0.4401517E+03  0.7546771E-02  0.1030700E+00
         21   -1    0    0  502  501  0.00000000000E+00  0.00000000000E+00  0.92964995392E+02  0.92964995392E+02  0.00000000000E+00 0.  1.
         21   -1    0    0  501  502 -0.00000000000E+00 -0.00000000000E+00 -0.52098521226E+03  0.52098521226E+03  0.00000000000E+00 0.  1.
      99926    2    1    2    0    0 -0.71054273576E-14 -0.71054273576E-14 -0.42802021687E+03  0.61395020765E+03  0.44015173682E+03 0.  0.
      99925    2    3    3    0    0  0.61038457735E+02  0.52432401235E+02 -0.35280650654E+03  0.44727849337E+03  0.26288927241E+03 0.  0.
         25    1    4    4    0    0  0.62479246413E+02  0.20841863411E+01 -0.17031331488E+03  0.22036817690E+03  0.12509000000E+03 0.  0.
         25    1    4    4    0    0 -0.14407886783E+01  0.50348214894E+02 -0.18249319166E+03  0.22691031647E+03  0.12509000000E+03 0.  0.
         25    1    3    3    0    0 -0.61038457735E+02 -0.52432401235E+02 -0.75213710323E+02  0.16667171428E+03  0.12509000000E+03 0.  0.
<mgrwt>
<rscale>  2 0.44015174E+03</rscale>
<asrwt>0</asrwt>
<pdfrwt beam="1">  1       21 0.13671323E-01 0.44015174E+03</pdfrwt>
<pdfrwt beam="2">  1       21 0.76615472E-01 0.44015174E+03</pdfrwt>
<totfact> 0.65136167E+04</totfact>
</mgrwt>
</event>
<event>
 7    0  0.4709932E-002  0.4595330E+03  0.7546771E-02  0.1024917E+00
         21   -1    0    0  502  501  0.00000000000E+00  0.00000000000E+00  0.55638648596E+03  0.55638648596E+03  0.00000000000E+00 0.  1.
         21   -1    0    0  501  502 -0.00000000000E+00 -0.00000000000E+00 -0.94884842174E+02  0.94884842174E+02  0.00000000000E+00 0.  1.
      99926    2    1    2    0    0  0.00000000000E+00 -0.71054273576E-14  0.46150164378E+03  0.65127132813E+03  0.45953299733E+03 0.  0.
      99925    2    3    3    0    0 -0.98382704252E+01 -0.59861816570E+02  0.14660396070E+03  0.30705005111E+03  0.26288169191E+03 0.  0.
         25    1    4    4    0    0 -0.43758028031E+02 -0.30463679316E+02  0.61523953577E+02  0.14924980984E+03  0.12509000000E+03 0.  0.
         25    1    4    4    0    0  0.33919757606E+02 -0.29398137254E+02  0.85080007127E+02  0.15780024126E+03  0.12509000000E+03 0.  0.
         25    1    3    3    0    0  0.98382704252E+01  0.59861816570E+02  0.31489768308E+03  0.34422127703E+03  0.12509000000E+03 0.  0.
<mgrwt>
<rscale>  2 0.45953300E+03</rscale>
<asrwt>0</asrwt>
<pdfrwt beam="1">  1       21 0.81821541E-01 0.45953300E+03</pdfrwt>
<pdfrwt beam="2">  1       21 0.13953653E-01 0.45953300E+03</pdfrwt>
<totfact> 0.53682677E+04</totfact>
</mgrwt>
</event>
<event>
 7    0  0.4709932E-002  0.4467682E+03  0.7546771E-02  0.1028690E+00
         21   -1    0    0  502  501  0.00000000000E+00  0.00000000000E+00  0.18480568384E+03  0.18480568384E+03  0.00000000000E+00 0.  1.
         21   -1    0    0  501  502 -0.00000000000E+00 -0.00000000000E+00 -0.27001586040E+03  0.27001586040E+03  0.00000000000E+00 0.  1.
      99926    2    1    2    0    0  0.00000000000E+00 -0.71054273576E-14 -0.85210176560E+02  0.45482154424E+03  0.44676824295E+03 0.  0.
      99925    2    3    3    0    0 -0.70376125427E+02 -0.39506506073E+02  0.14746876975E+02  0.27551040765E+03  0.26301131400E+03 0.  0.
         25    1    4    4    0    0 -0.50828012745E+02  0.28577784395E+01  0.37305168012E+02  0.14011009042E+03  0.12509000000E+03 0.  0.
         25    1    3    3    0    0  0.70376125427E+02  0.39506506073E+02 -0.99957053535E+02  0.17931113659E+03  0.12509000000E+03 0.  0.
         25    1    4    4    0    0 -0.19548112682E+02 -0.42364284512E+02 -0.22558291037E+02  0.13540031723E+03  0.12509000000E+03 0.  0.
<mgrwt>
<rscale>  2 0.44676824E+03</rscale>
<asrwt>0</asrwt>
<pdfrwt beam="1">  1       21 0.27177307E-01 0.44676824E+03</pdfrwt>
<pdfrwt beam="2">  1       21 0.39708215E-01 0.44676824E+03</pdfrwt>
<totfact> 0.73249616E+04</totfact>
</mgrwt>
</event>
<event>
 7    0  0.4709932E-002  0.4486301E+03  0.7546771E-02  0.1028131E+00
         21   -1    0    0  502  501  0.00000000000E+00  0.00000000000E+00  0.34496574742E+03  0.34496574742E+03  0.00000000000E+00 0. -1.
         21   -1    0    0  501  502 -0.00000000000E+00 -0.00000000000E+00 -0.14586153241E+03  0.14586153241E+03  0.00000000000E+00 0. -1.
      99926    2    1    2    0    0  0.00000000000E+00  0.00000000000E+00  0.19910421501E+03  0.49082727983E+03  0.44863005939E+03 0.  0.
      99925    2    3    3    0    0 -0.44296564150E+01 -0.50469865089E+02  0.22802705414E+02  0.26879899442E+03  0.26299449973E+03 0.  0.
         25    1    3    3    0    0  0.44296564150E+01  0.50469865089E+02  0.17630150960E+03  0.22202828541E+03  0.12509000000E+03 0.  0.
         25    1    4    4    0    0 -0.63364553734E+01 -0.24763281837E+02  0.51879224764E+02  0.13781267306E+03  0.12509000000E+03 0.  0.
         25    1    4    4    0    0  0.19067989584E+01 -0.25706583253E+02 -0.29076519350E+02  0.13098632136E+03  0.12509000000E+03 0.  0.
<mgrwt>
<rscale>  2 0.44863006E+03</rscale>
<asrwt>0</asrwt>
<pdfrwt beam="1">  1       21 0.50730257E-01 0.44863006E+03</pdfrwt>
<pdfrwt beam="2">  1       21 0.21450225E-01 0.44863006E+03</pdfrwt>
<totfact> 0.69361688E+04</totfact>
</mgrwt>
</event>
<event>
 7    0  0.4709932E-002  0.4492585E+03  0.7546771E-02  0.1027943E+00
         21   -1    0    0  502  501  0.00000000000E+00  0.00000000000E+00  0.56695438016E+03  0.56695438016E+03  0.00000000000E+00 0. -1.
         21   -1    0    0  501  502 -0.00000000000E+00 -0.00000000000E+00 -0.88998853401E+02  0.88998853401E+02  0.00000000000E+00 0. -1.
      99926    2    1    2    0    0  0.00000000000E+00  0.00000000000E+00  0.47795552676E+03  0.65595323356E+03  0.44925845463E+03 0.  0.
      99925    2    3    3    0    0 -0.55595646563E+02  0.67783750795E+02  0.39394822956E+03  0.48162524707E+03  0.26283484978E+03 0.  0.
         25    1    4    4    0    0  0.52437909136E+01  0.56791599813E+02  0.20041164588E+03  0.24303316452E+03  0.12509000000E+03 0.  0.
         25    1    3    3    0    0  0.55595646563E+02 -0.67783750795E+02  0.84007297197E+02  0.17432798648E+03  0.12509000000E+03 0.  0.
         25    1    4    4    0    0 -0.60839437476E+02  0.10992150982E+02  0.19353658368E+03  0.23859208256E+03  0.12509000000E+03 0.  0.
<mgrwt>
<rscale>  2 0.44925845E+03</rscale>
<asrwt>0</asrwt>
<pdfrwt beam="1">  1       21 0.83375643E-01 0.44925845E+03</pdfrwt>
<pdfrwt beam="2">  1       21 0.13088067E-01 0.44925845E+03</pdfrwt>
<totfact> 0.57939041E+04</totfact>
</mgrwt>
</event>
<event>
 7    0  0.4709932E-002  0.4513083E+03  0.7546771E-02  0.1027333E+00
         21   -1    0    0  502  501  0.00000000000E+00  0.00000000000E+00  0.89959650432E+02  0.89959650432E+02  0.00000000000E+00 0. -1.
         21   -1    0    0  501  502 -0.00000000000E+00 -0.00000000000E+00 -0.56602932982E+03  0.56602932982E+03  0.00000000000E+00 0. -1.
      99926    2    1    2    0    0  0.00000000000E+00  0.00000000000E+00 -0.47606967939E+03  0.65598898025E+03  0.45130832319E+03 0.  0.
      99925    2    3    3    0    0 -0.74746694012E+02  0.18202959076E+02 -0.18681863846E+03  0.33159402227E+03  0.26293530753E+03 0.  0.
         25    1    3    3    0    0  0.74746694012E+02 -0.18202959076E+02 -0.28925104093E+03  0.32439495798E+03  0.12509000000E+03 0.  0.
         25    1    4    4    0    0 -0.19319261063E+02  0.40833767394E+01 -0.45968312706E+02  0.13472379777E+03  0.12509000000E+03 0.  0.
         25    1    4    4    0    0 -0.55427432949E+02  0.14119582337E+02 -0.14085032575E+03  0.19687022450E+03  0.12509000000E+03 0.  0.
<mgrwt>
<rscale>  2 0.45130832E+03</rscale>
<asrwt>0</asrwt>
<pdfrwt beam="1">  1       21 0.13229360E-01 0.45130832E+03</pdfrwt>
<pdfrwt beam="2">  1       21 0.83239608E-01 0.45130832E+03</pdfrwt>
<totfact> 0.56999229E+04</totfact>
</mgrwt>
</event>
<event>
 7    0  0.4709932E-002  0.4525284E+03  0.7546771E-02  0.1026971E+00
         21   -1    0    0  502  501  0.00000000000E+00  0.00000000000E+00  0.31433900488E+03  0.31433900488E+03  0.00000000000E+00 0.  1.
         21   -1    0    0  501  502 -0.00000000000E+00 -0.00000000000E+00 -0.16286713874E+03  0.16286713874E+03  0.00000000000E+00 0.  1.
      99926    2    1    2    0    0  0.00000000000E+00  0.00000000000E+00  0.15147186613E+03  0.47720614362E+03  0.45252842704E+03 0.  0.
      99925    2    3    3    0    0 -0.10219195053E+03 -0.28571922848E+02  0.12924681707E+03  0.31167363795E+03  0.26301362577E+03 0.  0.
         25    1    3    3    0    0  0.10219195053E+03  0.28571922848E+02  0.22225049060E+02  0.16553250567E+03  0.12509000000E+03 0.  0.
         25    1    4    4    0    0 -0.27573225134E+02 -0.29759335978E+02  0.28473013984E+02  0.13455155684E+03  0.12509000000E+03 0.  0.
         25    1    4    4    0    0 -0.74618725393E+02  0.11874131302E+01  0.10077380309E+03  0.17712208111E+03  0.12509000000E+03 0.  0.
<mgrwt>
<rscale>  2 0.45252843E+03</rscale>
<asrwt>0</asrwt>
<pdfrwt beam="1">  1       21 0.46226324E-01 0.45252843E+03</pdfrwt>
<pdfrwt beam="2">  1       21 0.23951050E-01 0.45252843E+03</pdfrwt>
<totfact> 0.68232769E+04</totfact>
</mgrwt>
</event>
<event>
 7    0  0.4709932E-002  0.4502765E+03  0.7546771E-02  0.1027640E+00
         21   -1    0    0  502  501  0.00000000000E+00  0.00000000000E+00  0.25308628715E+03  0.25308628715E+03  0.00000000000E+00 0. -1.
         21   -1    0    0  501  502 -0.00000000000E+00 -0.00000000000E+00 -0.20027644241E+03  0.20027644241E+03  0.00000000000E+00 0. -1.
      99926    2    1    2    0    0  0.00000000000E+00  0.00000000000E+00  0.52809844743E+02  0.45336272956E+03  0.45027645381E+03 0.  0.
      99925    2    3    3    0    0  0.59627829860E+02  0.21428514008E+02  0.12229521138E+03  0.29686869267E+03  0.26298335052E+03 0.  0.
         25    1    4    4    0    0 -0.45387712330E+01 -0.10657390421E+01  0.35462867223E+02  0.13010326397E+03  0.12509000000E+03 0.  0.
         25    1    4    4    0    0  0.64166601094E+02  0.22494253050E+02  0.86832344161E+02  0.16676542870E+03  0.12509000000E+03 0.  0.
         25    1    3    3    0    0 -0.59627829860E+02 -0.21428514008E+02 -0.69485366641E+02  0.15649403690E+03  0.12509000000E+03 0.  0.
<mgrwt>
<rscale>  2 0.45027645E+03</rscale>
<asrwt>0</asrwt>
<pdfrwt beam="1">  1       21 0.37218571E-01 0.45027645E+03</pdfrwt>
<pdfrwt beam="2">  1       21 0.29452418E-01 0.45027645E+03</pdfrwt>
<totfact> 0.71315781E+04</totfact>
</mgrwt>
</event>
<event>
 7    0  0.4709932E-002  0.4486112E+03  0.7546771E-02  0.1028137E+00
         21   -1    0    0  502  501  0.00000000000E+00  0.00000000000E+00  0.17410234363E+03  0.17410234363E+03  0.00000000000E+00 0. -1.
         21   -1    0    0  501  502 -0.00000000000E+00 -0.00000000000E+00 -0.28898522994E+03  0.28898522994E+03  0.00000000000E+00 0. -1.
      99926    2    1    2    0    0  0.00000000000E+00  0.00000000000E+00 -0.11488288631E+03  0.46308757357E+03  0.44861121612E+03 0.  0.
      99925    2    3    3    0    0  0.23033302017E+02 -0.51841321499E+02 -0.16651936344E+03  0.31635008863E+03  0.26292703276E+03 0.  0.
         25    1    4    4    0    0  0.25240424975E+02  0.50142454639E+01 -0.53663914959E+02  0.13852633533E+03  0.12509000000E+03 0.  0.
         25    1    4    4    0    0 -0.22071229575E+01 -0.56855566963E+02 -0.11285544848E+03  0.17782375330E+03  0.12509000000E+03 0.  0.
         25    1    3    3    0    0 -0.23033302017E+02  0.51841321499E+02  0.51636477131E+02  0.14673748494E+03  0.12509000000E+03 0.  0.
<mgrwt>
<rscale>  2 0.44861122E+03</rscale>
<asrwt>0</asrwt>
<pdfrwt beam="1">  1       21 0.25603286E-01 0.44861122E+03</pdfrwt>
<pdfrwt beam="2">  1       21 0.42497827E-01 0.44861122E+03</pdfrwt>
<totfact> 0.71509228E+04</totfact>
</mgrwt>
</event>
<event>
 7    0  0.4709932E-002  0.4230378E+03  0.7546771E-02  0.1036082E+00
         21   -1    0    0  502  501  0.00000000000E+00  0.00000000000E+00  0.12526469678E+03  0.12526469678E+03  0.00000000000E+00 0. -1.
         21   -1    0    0  501  502 -0.00000000000E+00 -0.00000000000E+00 -0.35716555268E+03  0.35716555268E+03  0.00000000000E+00 0. -1.
      99926    2    1    2    0    0 -0.35527136788E-14 -0.71054273576E-14 -0.23190085589E+03  0.48243024946E+03  0.42303775083E+03 0.  0.
      99925    2    3    3    0    0 -0.11667448009E+02  0.60795360329E+02 -0.93601717206E+02  0.28594522448E+03  0.26300415350E+03 0.  0.
         25    1    3    3    0    0  0.11667448009E+02 -0.60795360329E+02 -0.13829913869E+03  0.19648502498E+03  0.12509000000E+03 0.  0.
         25    1    4    4    0    0 -0.40315456874E+02  0.46983435330E+02 -0.33329224316E+02  0.14349607852E+03  0.12509000000E+03 0.  0.
         25    1    4    4    0    0  0.28648008865E+02  0.13811924999E+02 -0.60272492890E+02  0.14244914596E+03  0.12509000000E+03 0.  0.
<mgrwt>
<rscale>  2 0.42303775E+03</rscale>
<asrwt>0</asrwt>
<pdfrwt beam="1">  1       21 0.18421279E-01 0.42303775E+03</pdfrwt>
<pdfrwt beam="2">  1       21 0.52524346E-01 0.42303775E+03</pdfrwt>
<totfact> 0.86461893E+04</totfact>
</mgrwt>
</event>
<event>
 7    0  0.4709932E-002  0.4446629E+03  0.7546771E-02  0.1029326E+00
         21   -1    0    0  502  501  0.00000000000E+00  0.00000000000E+00  0.58478263395E+02  0.58478263395E+02  0.00000000000E+00 0. -1.
         21   -1    0    0  501  502 -0.00000000000E+00 -0.00000000000E+00 -0.84529311311E+03  0.84529311311E+03  0.00000000000E+00 0. -1.
      99926    2    1    2    0    0  0.00000000000E+00  0.88817841970E-15 -0.78681484972E+03  0.90377137651E+03  0.44466289845E+03 0.  0.
      99925    2    3    3    0    0 -0.23618847066E+02 -0.56514617554E+01 -0.70379931687E+03  0.75168957040E+03  0.26289530778E+03 0.  0.
         25    1    3    3    0    0  0.23618847066E+02  0.56514617554E+01 -0.83015532845E+02  0.15208180611E+03  0.12509000000E+03 0.  0.
         25    1    4    4    0    0  0.43502980604E+01 -0.44122068676E+01 -0.45349320548E+03  0.47046996522E+03  0.12509000000E+03 0.  0.
         25    1    4    4    0    0 -0.27969145126E+02 -0.12392548878E+01 -0.25030611140E+03  0.28121960517E+03  0.12509000000E+03 0.  0.
<mgrwt>
<rscale>  2 0.44466290E+03</rscale>
<asrwt>0</asrwt>
<pdfrwt beam="1">  1       21 0.85997450E-02 0.44466290E+03</pdfrwt>
<pdfrwt beam="2">  1       21 0.12430781E+00 0.44466290E+03</pdfrwt>
<totfact> 0.46738776E+04</totfact>
</mgrwt>
</event>
<event>
 7    0  0.4709932E-002  0.4570663E+03  0.7546771E-02  0.1025636E+00
         21   -1    0    0  502  501  0.00000000000E+00  0.00000000000E+00  0.66620245000E+03  0.66620245000E+03  0.00000000000E+00 0.  1.
         21   -1    0    0  501  502 -0.00000000000E+00 -0.00000000000E+00 -0.78395704488E+02  0.78395704488E+02  0.00000000000E+00 0.  1.
      99926    2    1    2    0    0  0.00000000000E+00  0.35527136788E-14  0.58780674551E+03  0.74459815449E+03  0.45706634267E+03 0.  0.
      99925    2    3    3    0    0 -0.56363849056E+02 -0.14944485777E+02  0.20767019924E+03  0.34018311638E+03  0.26305402465E+03 0.  0.
         25    1    4    4    0    0 -0.31128348564E+02 -0.33550883502E+02  0.14469291768E+03  0.19666770044E+03  0.12509000000E+03 0.  0.
         25    1    3    3    0    0  0.56363849056E+02  0.14944485777E+02  0.38013654627E+03  0.40441503811E+03  0.12509000000E+03 0.  0.
         25    1    4    4    0    0 -0.25235500492E+02  0.18606397725E+02  0.62977281561E+02  0.14351541595E+03  0.12509000000E+03 0.  0.
<mgrwt>
<rscale>  2 0.45706634E+03</rscale>
<asrwt>0</asrwt>
<pdfrwt beam="1">  1       21 0.97970945E-01 0.45706634E+03</pdfrwt>
<pdfrwt beam="2">  1       21 0.11528780E-01 0.45706634E+03</pdfrwt>
<totfact> 0.49734784E+04</totfact>
</mgrwt>
</event>
<event>
 7    0  0.4709932E-002  0.4527553E+03  0.7546771E-02  0.1026904E+00
         21   -1    0    0  502  501  0.00000000000E+00  0.00000000000E+00  0.38390080297E+02  0.38390080297E+02  0.00000000000E+00 0. -1.
         21   -1    0    0  501  502 -0.00000000000E+00 -0.00000000000E+00 -0.13348979381E+04  0.13348979381E+04  0.00000000000E+00 0. -1.
      99926    2    1    2    0    0  0.00000000000E+00  0.00000000000E+00 -0.12965078578E+04  0.13732880184E+04  0.45275529387E+03 0.  0.
      99925    2    3    3    0    0  0.10176496404E+03  0.26544824215E+02 -0.70934195641E+03  0.76380295750E+03  0.26299850030E+03 0.  0.
         25    1    3    3    0    0 -0.10176496404E+03 -0.26544824215E+02 -0.58716590139E+03  0.60948506090E+03  0.12509000000E+03 0.  0.
         25    1    4    4    0    0  0.17805387703E+02 -0.12997022599E+02 -0.29680915918E+03  0.32284538018E+03  0.12509000000E+03 0.  0.
         25    1    4    4    0    0  0.83959576338E+02  0.39541846814E+02 -0.41253279723E+03  0.44095757732E+03  0.12509000000E+03 0.  0.
<mgrwt>
<rscale>  2 0.45275529E+03</rscale>
<asrwt>0</asrwt>
<pdfrwt beam="1">  1       21 0.56456009E-02 0.45275529E+03</pdfrwt>
<pdfrwt beam="2">  1       21 0.19630849E+00 0.45275529E+03</pdfrwt>
<totfact> 0.27529793E+04</totfact>
</mgrwt>
</event>
<event>
 7    0  0.4709932E-002  0.4569356E+03  0.7546771E-02  0.1025674E+00
         21   -1    0    0  502  501  0.00000000000E+00  0.00000000000E+00  0.29178208830E+03  0.29178208830E+03  0.00000000000E+00 0.  1.
         21   -1    0    0  501  502 -0.00000000000E+00 -0.00000000000E+00 -0.17889215743E+03  0.17889215743E+03  0.00000000000E+00 0.  1.
      99926    2    1    2    0    0  0.00000000000E+00  0.00000000000E+00  0.11288993087E+03  0.47067424573E+03  0.45693556340E+03 0.  0.
      99925    2    3    3    0    0  0.59700841867E+01  0.67337934932E+02  0.16671963696E+03  0.31863745826E+03  0.26299116538E+03 0.  0.
         25    1    3    3    0    0 -0.59700841867E+01 -0.67337934932E+02 -0.53829706094E+02  0.15203678747E+03  0.12509000000E+03 0.  0.
         25    1    4    4    0    0  0.72408129000E+00 -0.81273298631E+01  0.76993462321E+02  0.14711247100E+03  0.12509000000E+03 0.  0.
         25    1    4    4    0    0  0.52460028967E+01  0.75465264795E+02  0.89726174638E+02  0.17152498725E+03  0.12509000000E+03 0.  0.
<mgrwt>
<rscale>  2 0.45693556E+03</rscale>
<asrwt>0</asrwt>
<pdfrwt beam="1">  1       21 0.42909131E-01 0.45693556E+03</pdfrwt>
<pdfrwt beam="2">  1       21 0.26307670E-01 0.45693556E+03</pdfrwt>
<totfact> 0.66360837E+04</totfact>
</mgrwt>
</event>
<event>
 7    0  0.4709932E-002  0.4540222E+03  0.7546771E-02  0.1026529E+00
         21   -1    0    0  502  501  0.00000000000E+00  0.00000000000E+00  0.36238231704E+03  0.36238231704E+03  0.00000000000E+00 0. -1.
         21   -1    0    0  501  502 -0.00000000000E+00 -0.00000000000E+00 -0.14220900594E+03  0.14220900594E+03  0.00000000000E+00 0. -1.
      99926    2    1    2    0    0 -0.17763568394E-14  0.00000000000E+00  0.22017331110E+03  0.50459132299E+03  0.45402215399E+03 0.  0.
      99925    2    3    3    0    0 -0.65588919785E+01 -0.13077141230E+02  0.26245387317E+03  0.37174108883E+03  0.26285998345E+03 0.  0.
         25    1    3    3    0    0  0.65588919785E+01  0.13077141230E+02 -0.42280562070E+02  0.13285023416E+03  0.12509000000E+03 0.  0.
         25    1    4    4    0    0 -0.24820854090E+02 -0.15047911025E+02  0.17881916762E+03  0.22015066939E+03  0.12509000000E+03 0.  0.
         25    1    4    4    0    0  0.18261962112E+02  0.19707697952E+01  0.83634705541E+02  0.15159041944E+03  0.12509000000E+03 0.  0.
<mgrwt>
<rscale>  2 0.45402215E+03</rscale>
<asrwt>0</asrwt>
<pdfrwt beam="1">  1       21 0.53291517E-01 0.45402215E+03</pdfrwt>
<pdfrwt beam="2">  1       21 0.20913089E-01 0.45402215E+03</pdfrwt>
<totfact> 0.65455854E+04</totfact>
</mgrwt>
</event>
<event>
 7    0  0.4709932E-002  0.4623139E+03  0.7546771E-02  0.1024112E+00
         21   -1    0    0  502  501  0.00000000000E+00  0.00000000000E+00  0.17678108948E+03  0.17678108948E+03  0.00000000000E+00 0. -1.
         21   -1    0    0  501  502 -0.00000000000E+00 -0.00000000000E+00 -0.30225827150E+03  0.30225827150E+03  0.00000000000E+00 0. -1.
      99926    2    1    2    0    0  0.00000000000E+00  0.00000000000E+00 -0.12547718202E+03  0.47903936098E+03  0.46231394761E+03 0.  0.
      99925    2    3    3    0    0  0.58824361841E+02 -0.96058388063E+02 -0.12104943253E+03  0.31065102252E+03  0.26298968271E+03 0.  0.
         25    1    4    4    0    0  0.46791079415E+02 -0.75158177761E+02 -0.35834328701E+02  0.15738412884E+03  0.12509000000E+03 0.  0.
         25    1    3    3    0    0 -0.58824361841E+02  0.96058388063E+02 -0.44277494866E+01  0.16838833846E+03  0.12509000000E+03 0.  0.
         25    1    4    4    0    0  0.12033282426E+02 -0.20900210301E+02 -0.85215103831E+02  0.15326689368E+03  0.12509000000E+03 0.  0.
<mgrwt>
<rscale>  2 0.46231395E+03</rscale>
<asrwt>0</asrwt>
<pdfrwt beam="1">  1       21 0.25997220E-01 0.46231395E+03</pdfrwt>
<pdfrwt beam="2">  1       21 0.44449745E-01 0.46231395E+03</pdfrwt>
<totfact> 0.63031482E+04</totfact>
</mgrwt>
</event>
<event>
 7    0  0.4709932E-002  0.4594670E+03  0.7546771E-02  0.1024936E+00
         21   -1    0    0  502  501  0.00000000000E+00  0.00000000000E+00  0.37156377098E+03  0.37156377098E+03  0.00000000000E+00 0. -1.
         21   -1    0    0  501  502 -0.00000000000E+00 -0.00000000000E+00 -0.14204149329E+03  0.14204149329E+03  0.00000000000E+00 0. -1.
      99926    2    1    2    0    0  0.00000000000E+00  0.17763568394E-14  0.22952227769E+03  0.51360526427E+03  0.45946696457E+03 0.  0.
      99925    2    3    3    0    0 -0.11518263220E+03  0.14387314707E+02  0.14272525609E+03  0.32214961760E+03  0.26445385951E+03 0.  0.
         25    1    4    4    0    0 -0.83882983003E+02 -0.37768572986E+01  0.11366497821E+03  0.18872693199E+03  0.12509000000E+03 0.  0.
         25    1    3    3    0    0  0.11518263220E+03 -0.14387314707E+02  0.86797021593E+02  0.19145564667E+03  0.12509000000E+03 0.  0.
         25    1    4    4    0    0 -0.31299649192E+02  0.18164172006E+02  0.29060277885E+02  0.13342268561E+03  0.12509000000E+03 0.  0.
<mgrwt>
<rscale>  2 0.45946696E+03</rscale>
<asrwt>0</asrwt>
<pdfrwt beam="1">  1       21 0.54641731E-01 0.45946696E+03</pdfrwt>
<pdfrwt beam="2">  1       21 0.20888455E-01 0.45946696E+03</pdfrwt>
<totfact> 0.62094414E+04</totfact>
</mgrwt>
</event>
<event>
 7    0  0.4709932E-002  0.4578136E+03  0.7546771E-02  0.1025417E+00
         21   -1    0    0  502  501  0.00000000000E+00  0.00000000000E+00  0.77019535443E+02  0.77019535443E+02  0.00000000000E+00 0. -1.
         21   -1    0    0  501  502 -0.00000000000E+00 -0.00000000000E+00 -0.68032521124E+03  0.68032521124E+03  0.00000000000E+00 0. -1.
      99926    2    1    2    0    0  0.00000000000E+00  0.00000000000E+00 -0.60330567580E+03  0.75734474669E+03  0.45781363772E+03 0.  0.
      99925    2    3    3    0    0 -0.83146270058E+00  0.68502474366E+02 -0.53307095339E+03  0.59836768967E+03  0.26303226109E+03 0.  0.
         25    1    4    4    0    0 -0.25316601060E+02  0.99071608961E+01 -0.30253089103E+03  0.32849890449E+03  0.12509000000E+03 0.  0.
         25    1    4    4    0    0  0.24485138359E+02  0.58595313470E+02 -0.23054006236E+03  0.26986878518E+03  0.12509000000E+03 0.  0.
         25    1    3    3    0    0  0.83146270058E+00 -0.68502474366E+02 -0.70234722410E+02  0.15897705701E+03  0.12509000000E+03 0.  0.
<mgrwt>
<rscale>  2 0.45781364E+03</rscale>
<asrwt>0</asrwt>
<pdfrwt beam="1">  1       21 0.11326402E-01 0.45781364E+03</pdfrwt>
<pdfrwt beam="2">  1       21 0.10004783E+00 0.45781364E+03</pdfrwt>
<totfact> 0.48809294E+04</totfact>
</mgrwt>
</event>
<event>
 7    0  0.4709932E-002  0.4557978E+03  0.7546771E-02  0.1026007E+00
         21   -1    0    0  502  501  0.00000000000E+00  0.00000000000E+00  0.24803758392E+02  0.24803758392E+02  0.00000000000E+00 0.  1.
         21   -1    0    0  501  502 -0.00000000000E+00 -0.00000000000E+00 -0.20939536152E+04  0.20939536152E+04  0.00000000000E+00 0.  1.
      99926    2    1    2    0    0  0.00000000000E+00  0.00000000000E+00 -0.20691498568E+04  0.21187573736E+04  0.45579784798E+03 0.  0.
      99925    2    3    3    0    0  0.43943948630E+02  0.72395595419E+02 -0.94732441765E+03  0.98680683718E+03  0.26304370123E+03 0.  0.
         25    1    4    4    0    0 -0.47444260305E+01  0.64226697724E+02 -0.43900499711E+03  0.46099942936E+03  0.12509000000E+03 0.  0.
         25    1    4    4    0    0  0.48688374661E+02  0.81688976947E+01 -0.50831942054E+03  0.52580740782E+03  0.12509000000E+03 0.  0.
         25    1    3    3    0    0 -0.43943948630E+02 -0.72395595419E+02 -0.11218254392E+04  0.11319505364E+04  0.12509000000E+03 0.  0.
<mgrwt>
<rscale>  2 0.45579785E+03</rscale>
<asrwt>0</asrwt>
<pdfrwt beam="1">  1       21 0.36476121E-02 0.45579785E+03</pdfrwt>
<pdfrwt beam="2">  1       21 0.30793431E+00 0.45579785E+03</pdfrwt>
<totfact> 0.11792822E+04</totfact>
</mgrwt>
</event>
<event>
 7    0  0.4709932E-002  0.4591235E+03  0.7546771E-02  0.1025036E+00
         21   -1    0    0  502  501  0.00000000000E+00  0.00000000000E+00  0.42671604327E+03  0.42671604327E+03  0.00000000000E+00 0. -1.
         21   -1    0    0  501  502 -0.00000000000E+00 -0.00000000000E+00 -0.12349802963E+03  0.12349802963E+03  0.00000000000E+00 0. -1.
      99926    2    1    2    0    0  0.00000000000E+00  0.00000000000E+00  0.30321801364E+03  0.55021407290E+03  0.45912347165E+03 0.  0.
      99925    2    3    3    0    0 -0.10467006499E+03  0.52115199349E+02  0.19630054031E+03  0.34834611924E+03  0.26294353036E+03 0.  0.
         25    1    4    4    0    0 -0.56324719130E+02  0.78041840032E+01  0.53380187689E+02  0.14741211555E+03  0.12509000000E+03 0.  0.
         25    1    4    4    0    0 -0.48345345861E+02  0.44311015346E+02  0.14292035262E+03  0.20093400369E+03  0.12509000000E+03 0.  0.
         25    1    3    3    0    0  0.10467006499E+03 -0.52115199349E+02  0.10691747333E+03  0.20186795365E+03  0.12509000000E+03 0.  0.
<mgrwt>
<rscale>  2 0.45912347E+03</rscale>
<asrwt>0</asrwt>
<pdfrwt beam="1">  1       21 0.62752359E-01 0.45912347E+03</pdfrwt>
<pdfrwt beam="2">  1       21 0.18161475E-01 0.45912347E+03</pdfrwt>
<totfact> 0.59874928E+04</totfact>
</mgrwt>
</event>
<event>
 7    0  0.4709932E-002  0.4063076E+03  0.7546771E-02  0.1041617E+00
         21   -1    0    0  502  501  0.00000000000E+00  0.00000000000E+00  0.18341141201E+04  0.18341141201E+04  0.00000000000E+00 0.  1.
         21   -1    0    0  501  502 -0.00000000000E+00 -0.00000000000E+00 -0.22502128765E+02  0.22502128765E+02  0.00000000000E+00 0.  1.
      99926    2    1    2    0    0  0.00000000000E+00  0.00000000000E+00  0.18116119913E+04  0.18566162489E+04  0.40630762779E+03 0.  0.
      99925    2    3    3    0    0  0.44403181860E+02 -0.29616381898E+02  0.11133711720E+04  0.11452538079E+04  0.26298696748E+03 0.  0.
         25    1    4    4    0    0  0.16991210767E+02 -0.50214249710E+02  0.48705506194E+03  0.50564840906E+03  0.12509000000E+03 0.  0.
         25    1    3    3    0    0 -0.44403181860E+02  0.29616381898E+02  0.69824081929E+03  0.71136244099E+03  0.12509000000E+03 0.  0.
         25    1    4    4    0    0  0.27411971093E+02  0.20597867812E+02  0.62631611010E+03  0.63960539881E+03  0.12509000000E+03 0.  0.
<mgrwt>
<rscale>  2 0.40630763E+03</rscale>
<asrwt>0</asrwt>
<pdfrwt beam="1">  1       21 0.26972256E+00 0.40630763E+03</pdfrwt>
<pdfrwt beam="2">  1       21 0.33091379E-02 0.40630763E+03</pdfrwt>
<totfact> 0.24096967E+04</totfact>
</mgrwt>
</event>
<event>
 7    0  0.4709932E-002  0.4561054E+03  0.7546771E-02  0.1025917E+00
         21   -1    0    0  502  501  0.00000000000E+00  0.00000000000E+00  0.68509191776E+02  0.68509191776E+02  0.00000000000E+00 0.  1.
         21   -1    0    0  501  502 -0.00000000000E+00 -0.00000000000E+00 -0.75913955554E+03  0.75913955554E+03  0.00000000000E+00 0.  1.
      99926    2    1    2    0    0  0.00000000000E+00  0.00000000000E+00 -0.69063036377E+03  0.82764874732E+03  0.45610541499E+03 0.  0.
      99925    2    3    3    0    0 -0.11115356231E+03  0.20777174612E+02 -0.46301392857E+03  0.54437581344E+03  0.26301392132E+03 0.  0.
         25    1    3    3    0    0  0.11115356231E+03 -0.20777174612E+02 -0.22761643519E+03  0.28327293388E+03  0.12509000000E+03 0.  0.
         25    1    4    4    0    0 -0.55556935584E+02 -0.29697251111E+02 -0.23999157148E+03  0.27787040558E+03  0.12509000000E+03 0.  0.
         25    1    4    4    0    0 -0.55596626725E+02  0.50474425723E+02 -0.22302235709E+03  0.26650540786E+03  0.12509000000E+03 0.  0.
<mgrwt>
<rscale>  2 0.45610541E+03</rscale>
<asrwt>0</asrwt>
<pdfrwt beam="1">  1       21 0.10074881E-01 0.45610541E+03</pdfrwt>
<pdfrwt beam="2">  1       21 0.11163817E+00 0.45610541E+03</pdfrwt>
<totfact> 0.46055619E+04</totfact>
</mgrwt>
</event>
<event>
 7    0  0.4709932E-002  0.4665296E+03  0.7546771E-02  0.1022904E+00
         21   -1    0    0  502  501  0.00000000000E+00  0.00000000000E+00  0.61194595590E+03  0.61194595590E+03  0.00000000000E+00 0.  1.
         21   -1    0    0  501  502 -0.00000000000E+00 -0.00000000000E+00 -0.88917116397E+02  0.88917116397E+02  0.00000000000E+00 0.  1.
      99926    2    1    2    0    0  0.00000000000E+00  0.00000000000E+00  0.52302883950E+03  0.70086307229E+03  0.46652961230E+03 0.  0.
      99925    2    3    3    0    0 -0.25775830645E+02 -0.91824467449E+02  0.20785908570E+03  0.34861939516E+03  0.26312346324E+03 0.  0.
         25    1    4    4    0    0 -0.27059289051E+02 -0.39303667925E+02  0.56395707701E+02  0.14527548790E+03  0.12509000000E+03 0.  0.
         25    1    3    3    0    0  0.25775830645E+02  0.91824467449E+02  0.31516975380E+03  0.35224367713E+03  0.12509000000E+03 0.  0.
         25    1    4    4    0    0  0.12834584067E+01 -0.52520799524E+02  0.15146337800E+03  0.20334390727E+03  0.12509000000E+03 0.  0.
<mgrwt>
<rscale>  2 0.46652961E+03</rscale>
<asrwt>0</asrwt>
<pdfrwt beam="1">  1       21 0.89992050E-01 0.46652961E+03</pdfrwt>
<pdfrwt beam="2">  1       21 0.13076047E-01 0.46652961E+03</pdfrwt>
<totfact> 0.48319364E+04</totfact>
</mgrwt>
</event>
<event>
 7    0  0.4709932E-002  0.4537987E+03  0.7546771E-02  0.1026595E+00
         21   -1    0    0  502  501  0.00000000000E+00  0.00000000000E+00  0.18548119263E+03  0.18548119263E+03  0.00000000000E+00 0.  1.
         21   -1    0    0  501  502 -0.00000000000E+00 -0.00000000000E+00 -0.27756620455E+03  0.27756620455E+03  0.00000000000E+00 0.  1.
      99926    2    1    2    0    0  0.00000000000E+00  0.00000000000E+00 -0.92085011922E+02  0.46304739718E+03  0.45379868071E+03 0.  0.
      99925    2    3    3    0    0  0.88963329534E+01 -0.10886634485E+03 -0.84743708835E+02  0.29681734993E+03  0.26265570097E+03 0.  0.
         25    1    4    4    0    0  0.18233292770E+02 -0.15616018390E+02 -0.27093204617E+02  0.13022235919E+03  0.12509000000E+03 0.  0.
         25    1    4    4    0    0 -0.93369598170E+01 -0.93250326457E+02 -0.57650504218E+02  0.16659499074E+03  0.12509000000E+03 0.  0.
         25    1    3    3    0    0 -0.88963329534E+01  0.10886634485E+03 -0.73413030875E+01  0.16623004726E+03  0.12509000000E+03 0.  0.
<mgrwt>
<rscale>  2 0.45379868E+03</rscale>
<asrwt>0</asrwt>
<pdfrwt beam="1">  1       21 0.27276646E-01 0.45379868E+03</pdfrwt>
<pdfrwt beam="2">  1       21 0.40818559E-01 0.45379868E+03</pdfrwt>
<totfact> 0.68608285E+04</totfact>
</mgrwt>
</event>
<event>
 7    0  0.4709932E-002  0.4459423E+03  0.7546771E-02  0.1028939E+00
         21   -1    0    0  502  501  0.00000000000E+00  0.00000000000E+00  0.10883213868E+03  0.10883213868E+03  0.00000000000E+00 0. -1.
         21   -1    0    0  501  502 -0.00000000000E+00 -0.00000000000E+00 -0.45681472431E+03  0.45681472431E+03  0.00000000000E+00 0. -1.
      99926    2    1    2    0    0  0.00000000000E+00 -0.71054273576E-14 -0.34798258563E+03  0.56564686300E+03  0.44594225379E+03 0.  0.
      99925    2    3    3    0    0  0.60365855218E+02  0.45639443076E+02 -0.31243199379E+03  0.41518640998E+03  0.26275275270E+03 0.  0.
         25    1    3    3    0    0 -0.60365855218E+02 -0.45639443076E+02 -0.35550591835E+02  0.15046045301E+03  0.12509000000E+03 0.  0.
         25    1    4    4    0    0 -0.59823881495E+01  0.40947918115E+02 -0.15133672568E+03  0.20065600815E+03  0.12509000000E+03 0.  0.
         25    1    4    4    0    0  0.66348243367E+02  0.46915249611E+01 -0.16109526811E+03  0.21453040184E+03  0.12509000000E+03 0.  0.
<mgrwt>
<rscale>  2 0.44594225E+03</rscale>
<asrwt>0</asrwt>
<pdfrwt beam="1">  1       21 0.16004727E-01 0.44594225E+03</pdfrwt>
<pdfrwt beam="2">  1       21 0.67178634E-01 0.44594225E+03</pdfrwt>
<totfact> 0.65405046E+04</totfact>
</mgrwt>
</event>
<event>
 7    0  0.4709932E-002  0.4196797E+03  0.7546771E-02  0.1037171E+00
         21   -1    0    0  502  501  0.00000000000E+00  0.00000000000E+00  0.36992490364E+03  0.36992490364E+03  0.00000000000E+00 0. -1.
         21   -1    0    0  501  502 -0.00000000000E+00 -0.00000000000E+00 -0.11903165331E+03  0.11903165331E+03  0.00000000000E+00 0. -1.
      99926    2    1    2    0    0  0.00000000000E+00  0.35527136788E-14  0.25089325034E+03  0.48895655695E+03  0.41967974876E+03 0.  0.
      99925    2    3    3    0    0 -0.49694124059E+02 -0.31531016552E+02  0.21843941990E+03  0.34695490139E+03  0.26305553114E+03 0.  0.
         25    1    3    3    0    0  0.49694124059E+02  0.31531016552E+02  0.32453830433E+02  0.14200165556E+03  0.12509000000E+03 0.  0.
         25    1    4    4    0    0 -0.54984252957E+02 -0.44169277456E+02  0.12153802401E+03  0.18813078569E+03  0.12509000000E+03 0.  0.
         25    1    4    4    0    0  0.52901288982E+01  0.12638260904E+02  0.96901395888E+02  0.15882411570E+03  0.12509000000E+03 0.  0.
<mgrwt>
<rscale>  2 0.41967975E+03</rscale>
<asrwt>0</asrwt>
<pdfrwt beam="1">  1       21 0.54400721E-01 0.41967975E+03</pdfrwt>
<pdfrwt beam="2">  1       21 0.17504655E-01 0.41967975E+03</pdfrwt>
<totfact> 0.88328808E+04</totfact>
</mgrwt>
</event>
<event>
 7    0  0.4709932E-002  0.4544174E+03  0.7546771E-02  0.1026413E+00
         21   -1    0    0  502  501  0.00000000000E+00  0.00000000000E+00  0.17164537401E+02  0.17164537401E+02  0.00000000000E+00 0.  1.
         21   -1    0    0  501  502 -0.00000000000E+00 -0.00000000000E+00 -0.30075839645E+04  0.30075839645E+04  0.00000000000E+00 0.  1.
      99926    2    1    2    0    0  0.00000000000E+00  0.00000000000E+00 -0.29904194271E+04  0.30247485019E+04  0.45441737398E+03 0.  0.
      99925    2    3    3    0    0 -0.41902354159E+02  0.22748924881E+02 -0.12096778396E+04  0.12389821593E+04  0.26359627187E+03 0.  0.
         25    1    4    4    0    0  0.39024757636E+00  0.93842010697E+00 -0.42709962293E+03  0.44504227769E+03  0.12509000000E+03 0.  0.
         25    1    4    4    0    0 -0.42292601735E+02  0.21810504774E+02 -0.78257821669E+03  0.79393988161E+03  0.12509000000E+03 0.  0.
         25    1    3    3    0    0  0.41902354159E+02 -0.22748924881E+02 -0.17807415875E+04  0.17857663426E+04  0.12509000000E+03 0.  0.
<mgrwt>
<rscale>  2 0.45441737E+03</rscale>
<asrwt>0</asrwt>
<pdfrwt beam="1">  1       21 0.25241981E-02 0.45441737E+03</pdfrwt>
<pdfrwt beam="2">  1       21 0.44229151E+00 0.45441737E+03</pdfrwt>
<totfact> 0.31260908E+03</totfact>
</mgrwt>
</event>
<event>
 7    0  0.4709932E-002  0.4592264E+03  0.7546771E-02  0.1025006E+00
         21   -1    0    0  502  501  0.00000000000E+00  0.00000000000E+00  0.38345851237E+02  0.38345851237E+02  0.00000000000E+00 0.  1.
         21   -1    0    0  501  502 -0.00000000000E+00 -0.00000000000E+00 -0.13749132677E+04  0.13749132677E+04  0.00000000000E+00 0.  1.
      99926    2    1    2    0    0 -0.35527136788E-14 -0.17763568394E-14 -0.13365674165E+04  0.14132591190E+04  0.45922639135E+03 0.  0.
      99925    2    3    3    0    0 -0.26341591011E+02 -0.13339780944E+02 -0.48915952019E+03  0.55615966150E+03  0.26299183203E+03 0.  0.
         25    1    3    3    0    0  0.26341591011E+02  0.13339780944E+02 -0.84740789631E+03  0.85709945748E+03  0.12509000000E+03 0.  0.
         25    1    4    4    0    0  0.41663440416E+01 -0.42461573852E+02 -0.22817020064E+03  0.26368445582E+03  0.12509000000E+03 0.  0.
         25    1    4    4    0    0 -0.30507935052E+02  0.29121792908E+02 -0.26098931955E+03  0.29247520568E+03  0.12509000000E+03 0.  0.
<mgrwt>
<rscale>  2 0.45922639E+03</rscale>
<asrwt>0</asrwt>
<pdfrwt beam="1">  1       21 0.56390944E-02 0.45922639E+03</pdfrwt>
<pdfrwt beam="2">  1       21 0.20219318E+00 0.45922639E+03</pdfrwt>
<totfact> 0.25144801E+04</totfact>
</mgrwt>
</event>
<event>
 7    0  0.4709932E-002  0.4544761E+03  0.7546771E-02  0.1026396E+00
         21   -1    0    0  502  501  0.00000000000E+00  0.00000000000E+00  0.16976320370E+04  0.16976320370E+04  0.00000000000E+00 0. -1.
         21   -1    0    0  501  502 -0.00000000000E+00 -0.00000000000E+00 -0.30417155497E+02  0.30417155497E+02  0.00000000000E+00 0. -1.
      99926    2    1    2    0    0  0.00000000000E+00  0.00000000000E+00  0.16672148815E+04  0.17280491925E+04  0.45447612763E+03 0.  0.
      99925    2    3    3    0    0  0.72489556375E+02 -0.58607058358E+02  0.80949831545E+03  0.85626095051E+03  0.26306989488E+03 0.  0.
         25    1    4    4    0    0  0.55132893792E+02 -0.67013568125E+02  0.46124980529E+03  0.48572558638E+03  0.12509000000E+03 0.  0.
         25    1    4    4    0    0  0.17356662583E+02  0.84065097671E+01  0.34824851016E+03  0.37053536413E+03  0.12509000000E+03 0.  0.
         25    1    3    3    0    0 -0.72489556375E+02  0.58607058358E+02  0.85771656603E+03  0.87178824196E+03  0.12509000000E+03 0.  0.
<mgrwt>
<rscale>  2 0.45447613E+03</rscale>
<asrwt>0</asrwt>
<pdfrwt beam="1">  1       21 0.24965171E+00 0.45447613E+03</pdfrwt>
<pdfrwt beam="2">  1       21 0.44731122E-02 0.45447613E+03</pdfrwt>
<totfact> 0.18760032E+04</totfact>
</mgrwt>
</event>
<event>
 7    0  0.4709932E-002  0.4663193E+03  0.7546771E-02  0.1022964E+00
         21   -1    0    0  502  501  0.00000000000E+00  0.00000000000E+00  0.59614940694E+03  0.59614940694E+03  0.00000000000E+00 0. -1.
         21   -1    0    0  501  502 -0.00000000000E+00 -0.00000000000E+00 -0.91190934369E+02  0.91190934369E+02  0.00000000000E+00 0. -1.
      99926    2    1    2    0    0  0.00000000000E+00  0.00000000000E+00  0.50495847257E+03  0.68734034131E+03  0.46631929594E+03 0.  0.
      99925    2    3    3    0    0  0.43114088662E+02  0.87772218381E+02  0.20175489486E+03  0.34507917699E+03  0.26232005992E+03 0.  0.
         25    1    4    4    0    0  0.21159714617E+02  0.47892091710E+02  0.53356301764E+02  0.14572504592E+03  0.12509000000E+03 0.  0.
         25    1    4    4    0    0  0.21954374046E+02  0.39880126672E+02  0.14839859310E+03  0.19935413107E+03  0.12509000000E+03 0.  0.
         25    1    3    3    0    0 -0.43114088662E+02 -0.87772218381E+02  0.30320357771E+03  0.34226116431E+03  0.12509000000E+03 0.  0.
<mgrwt>
<rscale>  2 0.46631930E+03</rscale>
<asrwt>0</asrwt>
<pdfrwt beam="1">  1       21 0.87669028E-01 0.46631930E+03</pdfrwt>
<pdfrwt beam="2">  1       21 0.13410432E-01 0.46631930E+03</pdfrwt>
<totfact> 0.49071775E+04</totfact>
</mgrwt>
</event>
<event>
 7    0  0.4709932E-002  0.4649869E+03  0.7546771E-02  0.1023345E+00
         21   -1    0    0  502  501  0.00000000000E+00  0.00000000000E+00  0.28859947078E+03  0.28859947078E+03  0.00000000000E+00 0.  1.
         21   -1    0    0  501  502 -0.00000000000E+00 -0.00000000000E+00 -0.18729485397E+03  0.18729485397E+03  0.00000000000E+00 0.  1.
      99926    2    1    2    0    0  0.00000000000E+00  0.00000000000E+00  0.10130461682E+03  0.47589432475E+03  0.46498686319E+03 0.  0.
      99925    2    3    3    0    0 -0.85489057092E+02 -0.78406088357E+02  0.23156881381E+02  0.28824979318E+03  0.26286081591E+03 0.  0.
         25    1    4    4    0    0 -0.20150081141E+02 -0.65912866795E+02 -0.85119144309E+01  0.14307512910E+03  0.12509000000E+03 0.  0.
         25    1    3    3    0    0  0.85489057092E+02  0.78406088357E+02  0.78147735434E+02  0.18764453157E+03  0.12509000000E+03 0.  0.
         25    1    4    4    0    0 -0.65338975951E+02 -0.12493221562E+02  0.31668795812E+02  0.14517466408E+03  0.12509000000E+03 0.  0.
<mgrwt>
<rscale>  2 0.46498686E+03</rscale>
<asrwt>0</asrwt>
<pdfrwt beam="1">  1       21 0.42441099E-01 0.46498686E+03</pdfrwt>
<pdfrwt beam="2">  1       21 0.27543361E-01 0.46498686E+03</pdfrwt>
<totfact> 0.61943795E+04</totfact>
</mgrwt>
</event>
<event>
 7    0  0.4709932E-002  0.4517233E+03  0.7546771E-02  0.1027209E+00
         21   -1    0    0  502  501  0.00000000000E+00  0.00000000000E+00  0.35304812903E+03  0.35304812903E+03  0.00000000000E+00 0. -1.
         21   -1    0    0  501  502 -0.00000000000E+00 -0.00000000000E+00 -0.14449442265E+03  0.14449442265E+03  0.00000000000E+00 0. -1.
      99926    2    1    2    0    0  0.00000000000E+00  0.17763568394E-14  0.20855370638E+03  0.49754255169E+03  0.45172330280E+03 0.  0.
      99925    2    3    3    0    0  0.10071011924E+03 -0.13302533630E+02  0.17876674982E+03  0.33366986818E+03  0.26278992479E+03 0.  0.
         25    1    4    4    0    0  0.19530458350E+02  0.18111299654E+02  0.98496057722E+02  0.16142626634E+03  0.12509000000E+03 0.  0.
         25    1    3    3    0    0 -0.10071011924E+03  0.13302533630E+02  0.29786956559E+02  0.16387268351E+03  0.12509000000E+03 0.  0.
         25    1    4    4    0    0  0.81179660889E+02 -0.31413833284E+02  0.80270692101E+02  0.17224360184E+03  0.12509000000E+03 0.  0.
<mgrwt>
<rscale>  2 0.45172330E+03</rscale>
<asrwt>0</asrwt>
<pdfrwt beam="1">  1       21 0.51918842E-01 0.45172330E+03</pdfrwt>
<pdfrwt beam="2">  1       21 0.21249180E-01 0.45172330E+03</pdfrwt>
<totfact> 0.67173969E+04</totfact>
</mgrwt>
</event>
<event>
 7    0  0.4709932E-002  0.4501138E+03  0.7546771E-02  0.1027688E+00
         21   -1    0    0  502  501  0.00000000000E+00  0.00000000000E+00  0.10698011713E+04  0.10698011713E+04  0.00000000000E+00 0. -1.
         21   -1    0    0  501  502 -0.00000000000E+00 -0.00000000000E+00 -0.47345815885E+02  0.47345815885E+02  0.00000000000E+00 0. -1.
      99926    2    1    2    0    0  0.00000000000E+00  0.26645352591E-14  0.10224553554E+04  0.11171469872E+04  0.45011380468E+03 0.  0.
      99925    2    3    3    0    0  0.60205164372E+02 -0.42247723279E+01  0.87014077261E+03  0.91101656549E+03  0.26298993880E+03 0.  0.
         25    1    4    4    0    0  0.62715400567E+02  0.16362711391E+02  0.40037372883E+03  0.42443797030E+03  0.12509000000E+03 0.  0.
         25    1    3    3    0    0 -0.60205164372E+02  0.42247723279E+01  0.15231458283E+03  0.20613042172E+03  0.12509000000E+03 0.  0.
         25    1    4    4    0    0 -0.25102361956E+01 -0.20587483719E+02  0.46976704378E+03  0.48657859519E+03  0.12509000000E+03 0.  0.
<mgrwt>
<rscale>  2 0.45011380E+03</rscale>
<asrwt>0</asrwt>
<pdfrwt beam="1">  1       21 0.15732369E+00 0.45011380E+03</pdfrwt>
<pdfrwt beam="2">  1       21 0.69626207E-02 0.45011380E+03</pdfrwt>
<totfact> 0.36260108E+04</totfact>
</mgrwt>
</event>
<event>
 7    0  0.4709932E-002  0.4526315E+03  0.7546771E-02  0.1026940E+00
         21   -1    0    0  502  501  0.00000000000E+00  0.00000000000E+00  0.16757208693E+04  0.16757208693E+04  0.00000000000E+00 0.  1.
         21   -1    0    0  501  502 -0.00000000000E+00 -0.00000000000E+00 -0.30565240981E+02  0.30565240981E+02  0.00000000000E+00 0.  1.
      99926    2    1    2    0    0 -0.35527136788E-14  0.00000000000E+00  0.16451556284E+04  0.17062861103E+04  0.45263147124E+03 0.  0.
      99925    2    3    3    0    0  0.13267172552E+02  0.83406181176E+02  0.76699750147E+03  0.81525198480E+03  0.26309318222E+03 0.  0.
         25    1    4    4    0    0 -0.21245811371E+02  0.29501322782E+02  0.28843218466E+03  0.31648435316E+03  0.12509000000E+03 0.  0.
         25    1    4    4    0    0  0.34512983923E+02  0.53904858394E+02  0.47856531681E+03  0.49876763164E+03  0.12509000000E+03 0.  0.
         25    1    3    3    0    0 -0.13267172552E+02 -0.83406181176E+02  0.87815812688E+03  0.89103412552E+03  0.12509000000E+03 0.  0.
<mgrwt>
<rscale>  2 0.45263147E+03</rscale>
<asrwt>0</asrwt>
<pdfrwt beam="1">  1       21 0.24642948E+00 0.45263147E+03</pdfrwt>
<pdfrwt beam="2">  1       21 0.44948895E-02 0.45263147E+03</pdfrwt>
<totfact> 0.19487184E+04</totfact>
</mgrwt>
</event>
<event>
 7    0  0.4709932E-002  0.4640481E+03  0.7546771E-02  0.1023614E+00
         21   -1    0    0  502  501  0.00000000000E+00  0.00000000000E+00  0.65771949619E+03  0.65771949619E+03  0.00000000000E+00 0. -1.
         21   -1    0    0  501  502 -0.00000000000E+00 -0.00000000000E+00 -0.81851234601E+02  0.81851234601E+02  0.00000000000E+00 0. -1.
      99926    2    1    2    0    0  0.35527136788E-14  0.35527136788E-14  0.57586826159E+03  0.73957073079E+03  0.46404806986E+03 0.  0.
      99925    2    3    3    0    0 -0.14470312610E+02 -0.31992390494E+02  0.54479437280E+03  0.60598181785E+03  0.26302120054E+03 0.  0.
         25    1    4    4    0    0  0.29377192109E+02 -0.26418806313E+01  0.23780483088E+03  0.27031212448E+03  0.12509000000E+03 0.  0.
         25    1    3    3    0    0  0.14470312610E+02  0.31992390494E+02  0.31073888787E+02  0.13358891294E+03  0.12509000000E+03 0.  0.
         25    1    4    4    0    0 -0.43847504719E+02 -0.29350509863E+02  0.30698954192E+03  0.33566969337E+03  0.12509000000E+03 0.  0.
<mgrwt>
<rscale>  2 0.46404807E+03</rscale>
<asrwt>0</asrwt>
<pdfrwt beam="1">  1       21 0.96723453E-01 0.46404807E+03</pdfrwt>
<pdfrwt beam="2">  1       21 0.12036947E-01 0.46404807E+03</pdfrwt>
<totfact> 0.47347660E+04</totfact>
</mgrwt>
</event>
<event>
 7    0  0.4709932E-002  0.4658298E+03  0.7546771E-02  0.1023104E+00
         21   -1    0    0  502  501  0.00000000000E+00  0.00000000000E+00  0.42807841638E+03  0.42807841638E+03  0.00000000000E+00 0. -1.
         21   -1    0    0  501  502 -0.00000000000E+00 -0.00000000000E+00 -0.12672758656E+03  0.12672758656E+03  0.00000000000E+00 0. -1.
      99926    2    1    2    0    0  0.00000000000E+00  0.00000000000E+00  0.30135082982E+03  0.55480600293E+03  0.46582977391E+03 0.  0.
      99925    2    3    3    0    0 -0.91761833513E+02 -0.75457733579E+02  0.22560041059E+03  0.36639226203E+03  0.26312286251E+03 0.  0.
         25    1    4    4    0    0 -0.51595945909E+02 -0.49693288670E+02  0.67354971817E+02  0.15910928603E+03  0.12509000000E+03 0.  0.
         25    1    4    4    0    0 -0.40165887604E+02 -0.25764444909E+02  0.15824543877E+03  0.20728297600E+03  0.12509000000E+03 0.  0.
         25    1    3    3    0    0  0.91761833513E+02  0.75457733579E+02  0.75750419232E+02  0.18841374090E+03  0.12509000000E+03 0.  0.
<mgrwt>
<rscale>  2 0.46582977E+03</rscale>
<asrwt>0</asrwt>
<pdfrwt beam="1">  1       21 0.62952708E-01 0.46582977E+03</pdfrwt>
<pdfrwt beam="2">  1       21 0.18636410E-01 0.46582977E+03</pdfrwt>
<totfact> 0.56547291E+04</totfact>
</mgrwt>
</event>
<event>
 7    0  0.4709932E-002  0.4541258E+03  0.7546771E-02  0.1026499E+00
         21   -1    0    0  502  501  0.00000000000E+00  0.00000000000E+00  0.94144483292E+03  0.94144483292E+03  0.00000000000E+00 0.  1.
         21   -1    0    0  501  502 -0.00000000000E+00 -0.00000000000E+00 -0.54764281131E+02  0.54764281131E+02  0.00000000000E+00 0.  1.
      99926    2    1    2    0    0  0.00000000000E+00  0.00000000000E+00  0.88668055179E+03  0.99620911405E+03  0.45412575131E+03 0.  0.
      99925    2    3    3    0    0 -0.62890857733E+02  0.74746535751E+02  0.68036860657E+03  0.73591229995E+03  0.26291285213E+03 0.  0.
         25    1    3    3    0    0  0.62890857733E+02 -0.74746535751E+02  0.20631194522E+03  0.26029681410E+03  0.12509000000E+03 0.  0.
         25    1    4    4    0    0 -0.15098349831E+02  0.43676919867E+02  0.43106567789E+03  0.45122140934E+03  0.12509000000E+03 0.  0.
         25    1    4    4    0    0 -0.47792507902E+02  0.31069615885E+02  0.24930292868E+03  0.28469089060E+03  0.12509000000E+03 0.  0.
<mgrwt>
<rscale>  2 0.45412575E+03</rscale>
<asrwt>0</asrwt>
<pdfrwt beam="1">  1       21 0.13844776E+00 0.45412575E+03</pdfrwt>
<pdfrwt beam="2">  1       21 0.80535713E-02 0.45412575E+03</pdfrwt>
<totfact> 0.39584156E+04</totfact>
</mgrwt>
</event>
<event>
 7    0  0.4709932E-002  0.4522424E+03  0.7546771E-02  0.1027055E+00
         21   -1    0    0  502  501  0.00000000000E+00  0.00000000000E+00  0.22704875405E+03  0.22704875405E+03  0.00000000000E+00 0.  1.
         21   -1    0    0  501  502 -0.00000000000E+00 -0.00000000000E+00 -0.22519746950E+03  0.22519746950E+03  0.00000000000E+00 0.  1.
      99926    2    1    2    0    0  0.14210854715E-13 -0.35527136788E-14  0.18512845550E+01  0.45224622355E+03  0.45224243439E+03 0.  0.
      99925    2    3    3    0    0 -0.94397392041E+02  0.24065341082E+02 -0.51059021006E+02  0.28510252250E+03  0.26303310903E+03 0.  0.
         25    1    4    4    0    0 -0.78888599552E+01  0.70371810766E+01 -0.64839453067E+01  0.12570324449E+03  0.12509000000E+03 0.  0.
         25    1    3    3    0    0  0.94397392041E+02 -0.24065341082E+02  0.52910305561E+02  0.16714370105E+03  0.12509000000E+03 0.  0.
         25    1    4    4    0    0 -0.86508532086E+02  0.17028160006E+02 -0.44575075699E+02  0.15939927801E+03  0.12509000000E+03 0.  0.
<mgrwt>
<rscale>  2 0.45224243E+03</rscale>
<asrwt>0</asrwt>
<pdfrwt beam="1">  1       21 0.33389523E-01 0.45224243E+03</pdfrwt>
<pdfrwt beam="2">  1       21 0.33117275E-01 0.45224243E+03</pdfrwt>
<totfact> 0.70281692E+04</totfact>
</mgrwt>
</event>
<event>
 7    0  0.4709932E-002  0.4549068E+03  0.7546771E-02  0.1026269E+00
         21   -1    0    0  502  501  0.00000000000E+00  0.00000000000E+00  0.44889543597E+03  0.44889543597E+03  0.00000000000E+00 0. -1.
         21   -1    0    0  501  502 -0.00000000000E+00 -0.00000000000E+00 -0.11524966316E+03  0.11524966316E+03  0.00000000000E+00 0. -1.
      99926    2    1    2    0    0  0.88817841970E-15  0.00000000000E+00  0.33364577281E+03  0.56414509913E+03  0.45490679392E+03 0.  0.
      99925    2    3    3    0    0 -0.42918489858E+01  0.93408986765E+02  0.28863390228E+03  0.40161130152E+03  0.26313199956E+03 0.  0.
         25    1    3    3    0    0  0.42918489858E+01 -0.93408986765E+02  0.45011870536E+02  0.16253379761E+03  0.12509000000E+03 0.  0.
         25    1    4    4    0    0  0.34234446268E+02  0.65996088083E+02  0.14887023632E+03  0.20817621458E+03  0.12509000000E+03 0.  0.
         25    1    4    4    0    0 -0.38526295253E+02  0.27412898682E+02  0.13976366596E+03  0.19343508694E+03  0.12509000000E+03 0.  0.
<mgrwt>
<rscale>  2 0.45490679E+03</rscale>
<asrwt>0</asrwt>
<pdfrwt beam="1">  1       21 0.66014034E-01 0.45490679E+03</pdfrwt>
<pdfrwt beam="2">  1       21 0.16948480E-01 0.45490679E+03</pdfrwt>
<totfact> 0.60986302E+04</totfact>
</mgrwt>
</event>
<event>
 7    0  0.4709932E-002  0.4474851E+03  0.7546771E-02  0.1028475E+00
         21   -1    0    0  502  501  0.00000000000E+00  0.00000000000E+00  0.72742619653E+03  0.72742619653E+03  0.00000000000E+00 0.  1.
         21   -1    0    0  501  502 -0.00000000000E+00 -0.00000000000E+00 -0.68818986859E+02  0.68818986859E+02  0.00000000000E+00 0.  1.
      99926    2    1    2    0    0  0.00000000000E+00  0.00000000000E+00  0.65860720967E+03  0.79624518339E+03  0.44748512315E+03 0.  0.
      99925    2    3    3    0    0 -0.70908358201E+02 -0.76960003502E+02  0.44727397296E+03  0.52929934161E+03  0.26296948253E+03 0.  0.
         25    1    3    3    0    0  0.70908358201E+02  0.76960003502E+02  0.21133323672E+03  0.26694584178E+03  0.12509000000E+03 0.  0.
         25    1    4    4    0    0 -0.52357922193E+02 -0.42139577144E+01  0.24248964881E+03  0.27786300102E+03  0.12509000000E+03 0.  0.
         25    1    4    4    0    0 -0.18550436008E+02 -0.72746045788E+02  0.20478432414E+03  0.25143634059E+03  0.12509000000E+03 0.  0.
<mgrwt>
<rscale>  2 0.44748512E+03</rscale>
<asrwt>0</asrwt>
<pdfrwt beam="1">  1       21 0.10697444E+00 0.44748512E+03</pdfrwt>
<pdfrwt beam="2">  1       21 0.10120440E-01 0.44748512E+03</pdfrwt>
<totfact> 0.50882152E+04</totfact>
</mgrwt>
</event>
<event>
 7    0  0.4709932E-002  0.4547036E+03  0.7546771E-02  0.1026329E+00
         21   -1    0    0  502  501  0.00000000000E+00  0.00000000000E+00  0.19650842624E+04  0.19650842624E+04  0.00000000000E+00 0. -1.
         21   -1    0    0  501  502 -0.00000000000E+00 -0.00000000000E+00 -0.26303626042E+02  0.26303626042E+02  0.00000000000E+00 0. -1.
      99926    2    1    2    0    0  0.00000000000E+00  0.00000000000E+00  0.19387806363E+04  0.19913878884E+04  0.45470360270E+03 0.  0.
      99925    2    3    3    0    0  0.97663044318E+02  0.52586874412E+02  0.12902810287E+04  0.13216844475E+04  0.26404771563E+03 0.  0.
         25    1    4    4    0    0  0.17055039002E+02  0.10530280340E+02  0.70651646529E+03  0.71778463691E+03  0.12509000000E+03 0.  0.
         25    1    3    3    0    0 -0.97663044318E+02 -0.52586874412E+02  0.64849960759E+03  0.66970344088E+03  0.12509000000E+03 0.  0.
         25    1    4    4    0    0  0.80608005317E+02  0.42056594072E+02  0.58376456345E+03  0.60389981062E+03  0.12509000000E+03 0.  0.
<mgrwt>
<rscale>  2 0.45470360E+03</rscale>
<asrwt>0</asrwt>
<pdfrwt beam="1">  1       21 0.28898288E+00 0.45470360E+03</pdfrwt>
<pdfrwt beam="2">  1       21 0.38681816E-02 0.45470360E+03</pdfrwt>
<totfact> 0.13882737E+04</totfact>
</mgrwt>
</event>
<event>
 7    0  0.4709932E-002  0.4542508E+03  0.7546771E-02  0.1026462E+00
         21   -1    0    0  502  501  0.00000000000E+00  0.00000000000E+00  0.42284390618E+03  0.42284390618E+03  0.00000000000E+00 0.  1.
         21   -1    0    0  501  502 -0.00000000000E+00 -0.00000000000E+00 -0.12199762745E+03  0.12199762745E+03  0.00000000000E+00 0.  1.
      99926    2    1    2    0    0 -0.35527136788E-14  0.00000000000E+00  0.30084627873E+03  0.54484153363E+03  0.45425082647E+03 0.  0.
      99925    2    3    3    0    0 -0.31607643114E+02 -0.48099326856E+02  0.30515437987E+03  0.40707849003E+03  0.26321305657E+03 0.  0.
         25    1    3    3    0    0  0.31607643114E+02  0.48099326856E+02 -0.43081011331E+01  0.13776304360E+03  0.12509000000E+03 0.  0.
         25    1    4    4    0    0 -0.22591352792E+02 -0.19589135587E+02  0.92013774536E+02  0.15813964164E+03  0.12509000000E+03 0.  0.
         25    1    4    4    0    0 -0.90162903222E+01 -0.28510191269E+02  0.21314060533E+03  0.24893884839E+03  0.12509000000E+03 0.  0.
<mgrwt>
<rscale>  2 0.45425083E+03</rscale>
<asrwt>0</asrwt>
<pdfrwt beam="1">  1       21 0.62182927E-01 0.45425083E+03</pdfrwt>
<pdfrwt beam="2">  1       21 0.17940828E-01 0.45425083E+03</pdfrwt>
<totfact> 0.62578833E+04</totfact>
</mgrwt>
</event>
<event>
 7    0  0.4709932E-002  0.4257862E+03  0.7546771E-02  0.1035199E+00
         21   -1    0    0  502  501  0.00000000000E+00  0.00000000000E+00  0.85896909018E+03  0.85896909018E+03  0.00000000000E+00 0.  1.
         21   -1    0    0  501  502 -0.00000000000E+00 -0.00000000000E+00 -0.52764970243E+02  0.52764970243E+02  0.00000000000E+00 0.  1.
      99926    2    1    2    0    0  0.00000000000E+00  0.00000000000E+00  0.80620411994E+03  0.91173406042E+03  0.42578623032E+03 0.  0.
      99925    2    3    3    0    0 -0.21270829842E+02  0.77007180327E+02  0.56853721292E+03  0.63152767075E+03  0.26307809187E+03 0.  0.
         25    1    4    4    0    0 -0.43999749303E+02  0.15072426568E+02  0.28279750236E+03  0.31270607833E+03  0.12509000000E+03 0.  0.
         25    1    3    3    0    0  0.21270829842E+02 -0.77007180327E+02  0.23766690701E+03  0.28020638967E+03  0.12509000000E+03 0.  0.
         25    1    4    4    0    0  0.22728919461E+02  0.61934753759E+02  0.28573971056E+03  0.31882159242E+03  0.12509000000E+03 0.  0.
<mgrwt>
<rscale>  2 0.42578623E+03</rscale>
<asrwt>0</asrwt>
<pdfrwt beam="1">  1       21 0.12631898E+00 0.42578623E+03</pdfrwt>
<pdfrwt beam="2">  1       21 0.77595550E-02 0.42578623E+03</pdfrwt>
<totfact> 0.54069890E+04</totfact>
</mgrwt>
</event>
<event>
 7    0  0.4709932E-002  0.4546767E+03  0.7546771E-02  0.1026337E+00
         21   -1    0    0  502  501  0.00000000000E+00  0.00000000000E+00  0.19164089810E+03  0.19164089810E+03  0.00000000000E+00 0.  1.
         21   -1    0    0  501  502 -0.00000000000E+00 -0.00000000000E+00 -0.26968528143E+03  0.26968528143E+03  0.00000000000E+00 0.  1.
      99926    2    1    2    0    0 -0.35527136788E-14  0.00000000000E+00 -0.78044383325E+02  0.46132617953E+03  0.45467671829E+03 0.  0.
      99925    2    3    3    0    0  0.29535383618E+01  0.11155825998E+03 -0.32053357255E+02  0.28749680532E+03  0.26300765503E+03 0.  0.
         25    1    3    3    0    0 -0.29535383618E+01 -0.11155825998E+03 -0.45991026070E+02  0.17382937421E+03  0.12509000000E+03 0.  0.
         25    1    4    4    0    0  0.35650544779E+02  0.42519758128E+02  0.26655042684E+01  0.13687039193E+03  0.12509000000E+03 0.  0.
         25    1    4    4    0    0 -0.32697006417E+02  0.69038501851E+02 -0.34718861524E+02  0.15062641339E+03  0.12509000000E+03 0.  0.
<mgrwt>
<rscale>  2 0.45467672E+03</rscale>
<asrwt>0</asrwt>
<pdfrwt beam="1">  1       21 0.28182485E-01 0.45467672E+03</pdfrwt>
<pdfrwt beam="2">  1       21 0.39659600E-01 0.45467672E+03</pdfrwt>
<totfact> 0.68258924E+04</totfact>
</mgrwt>
</event>
<event>
 7    0  0.4709932E-002  0.4563060E+03  0.7546771E-02  0.1025858E+00
         21   -1    0    0  502  501  0.00000000000E+00  0.00000000000E+00  0.15876462807E+03  0.15876462807E+03  0.00000000000E+00 0.  1.
         21   -1    0    0  501  502 -0.00000000000E+00 -0.00000000000E+00 -0.32786774683E+03  0.32786774683E+03  0.00000000000E+00 0.  1.
      99926    2    1    2    0    0  0.14210854715E-13  0.00000000000E+00 -0.16910311877E+03  0.48663237490E+03  0.45630604151E+03 0.  0.
      99925    2    3    3    0    0 -0.91518887770E+02  0.27232855527E+02 -0.39038775867E+02  0.28247171112E+03  0.26296179632E+03 0.  0.
         25    1    4    4    0    0 -0.57486806604E+02 -0.25139905902E+02 -0.19903510079E+02  0.14135206265E+03  0.12509000000E+03 0.  0.
         25    1    3    3    0    0  0.91518887770E+02 -0.27232855527E+02 -0.13006434290E+03  0.20416066377E+03  0.12509000000E+03 0.  0.
         25    1    4    4    0    0 -0.34032081165E+02  0.52372761428E+02 -0.19135265788E+02  0.14111964847E+03  0.12509000000E+03 0.  0.
<mgrwt>
<rscale>  2 0.45630604E+03</rscale>
<asrwt>0</asrwt>
<pdfrwt beam="1">  1       21 0.23347740E-01 0.45630604E+03</pdfrwt>
<pdfrwt beam="2">  1       21 0.48215844E-01 0.45630604E+03</pdfrwt>
<totfact> 0.65538255E+04</totfact>
</mgrwt>
</event>
<event>
 7    0  0.4709932E-002  0.4520267E+03  0.7546771E-02  0.1027119E+00
         21   -1    0    0  502  501  0.00000000000E+00  0.00000000000E+00  0.32527635766E+03  0.32527635766E+03  0.00000000000E+00 0.  1.
         21   -1    0    0  501  502 -0.00000000000E+00 -0.00000000000E+00 -0.15704194877E+03  0.15704194877E+03  0.00000000000E+00 0.  1.
      99926    2    1    2    0    0 -0.14210854715E-13  0.00000000000E+00  0.16823440889E+03  0.48231830644E+03  0.45202669433E+03 0.  0.
      99925    2    3    3    0    0 -0.10346415842E+03 -0.16933721258E+02  0.69351669604E+02  0.29148621474E+03  0.26298854788E+03 0.  0.
         25    1    4    4    0    0 -0.61241871696E+02 -0.40905856525E+02  0.12303635127E+02  0.14568027830E+03  0.12509000000E+03 0.  0.
         25    1    4    4    0    0 -0.42222286721E+02  0.23972135266E+02  0.57048034477E+02  0.14580593645E+03  0.12509000000E+03 0.  0.
         25    1    3    3    0    0  0.10346415842E+03  0.16933721258E+02  0.98882739283E+02  0.19083209170E+03  0.12509000000E+03 0.  0.
<mgrwt>
<rscale>  2 0.45202669E+03</rscale>
<asrwt>0</asrwt>
<pdfrwt beam="1">  1       21 0.47834758E-01 0.45202669E+03</pdfrwt>
<pdfrwt beam="2">  1       21 0.23094404E-01 0.45202669E+03</pdfrwt>
<totfact> 0.68125539E+04</totfact>
</mgrwt>
</event>
<event>
 7    0  0.4709932E-002  0.4200488E+03  0.7546771E-02  0.1037050E+00
         21   -1    0    0  502  501  0.00000000000E+00  0.00000000000E+00  0.14365245933E+03  0.14365245933E+03  0.00000000000E+00 0.  1.
         21   -1    0    0  501  502 -0.00000000000E+00 -0.00000000000E+00 -0.30706228747E+03  0.30706228747E+03  0.00000000000E+00 0.  1.
      99926    2    1    2    0    0  0.00000000000E+00  0.00000000000E+00 -0.16340982814E+03  0.45071474680E+03  0.42004881984E+03 0.  0.
      99925    2    3    3    0    0 -0.17428632721E+02 -0.69087315190E+02 -0.13436860800E+03  0.30385523936E+03  0.26305183769E+03 0.  0.
         25    1    3    3    0    0  0.17428632721E+02  0.69087315190E+02 -0.29041220138E+02  0.14685950744E+03  0.12509000000E+03 0.  0.
         25    1    4    4    0    0  0.73035342432E+01 -0.72708093640E+02 -0.67384225536E+02  0.15977468649E+03  0.12509000000E+03 0.  0.
         25    1    4    4    0    0 -0.24732166964E+02  0.36207784502E+01 -0.66984382467E+02  0.14408055286E+03  0.12509000000E+03 0.  0.
<mgrwt>
<rscale>  2 0.42004882E+03</rscale>
<asrwt>0</asrwt>
<pdfrwt beam="1">  1       21 0.21125362E-01 0.42004882E+03</pdfrwt>
<pdfrwt beam="2">  1       21 0.45156218E-01 0.42004882E+03</pdfrwt>
<totfact> 0.91847379E+04</totfact>
</mgrwt>
</event>
<event>
 7    0  0.4709932E-002  0.4687162E+03  0.7546771E-02  0.1022283E+00
         21   -1    0    0  502  501  0.00000000000E+00  0.00000000000E+00  0.21334395836E+03  0.21334395836E+03  0.00000000000E+00 0. -1.
         21   -1    0    0  501  502 -0.00000000000E+00 -0.00000000000E+00 -0.25744210053E+03  0.25744210053E+03  0.00000000000E+00 0. -1.
      99926    2    1    2    0    0  0.00000000000E+00  0.00000000000E+00 -0.44098142170E+02  0.47078605889E+03  0.46871619036E+03 0.  0.
      99925    2    3    3    0    0  0.58203440874E+02  0.44434082615E+02  0.75107392894E+02  0.28311747890E+03  0.26296835962E+03 0.  0.
         25    1    4    4    0    0  0.54172780022E+01  0.37813816797E+02  0.66970395886E+02  0.14694139535E+03  0.12509000000E+03 0.  0.
         25    1    3    3    0    0 -0.58203440874E+02 -0.44434082615E+02 -0.11920553506E+03  0.18766857999E+03  0.12509000000E+03 0.  0.
         25    1    4    4    0    0  0.52786162872E+02  0.66202658178E+01  0.81369970084E+01  0.13617608355E+03  0.12509000000E+03 0.  0.
<mgrwt>
<rscale>  2 0.46871619E+03</rscale>
<asrwt>0</asrwt>
<pdfrwt beam="1">  1       21 0.31374112E-01 0.46871619E+03</pdfrwt>
<pdfrwt beam="2">  1       21 0.37859132E-01 0.46871619E+03</pdfrwt>
<totfact> 0.60506725E+04</totfact>
</mgrwt>
</event>
<event>
 7    0  0.4709932E-002  0.4438421E+03  0.7546771E-02  0.1029574E+00
         21   -1    0    0  502  501  0.00000000000E+00  0.00000000000E+00  0.35104295921E+03  0.35104295921E+03  0.00000000000E+00 0.  1.
         21   -1    0    0  501  502 -0.00000000000E+00 -0.00000000000E+00 -0.14029322600E+03  0.14029322600E+03  0.00000000000E+00 0.  1.
      99926    2    1    2    0    0  0.71054273576E-14  0.00000000000E+00  0.21074973321E+03  0.49133618521E+03  0.44384208549E+03 0.  0.
      99925    2    3    3    0    0  0.56818137108E+02  0.80696646119E+02  0.10273884031E+03  0.29884174248E+03  0.26269919745E+03 0.  0.
         25    1    4    4    0    0  0.21545983902E+02  0.81127755300E+02  0.56658777783E+02  0.16094616274E+03  0.12509000000E+03 0.  0.
         25    1    4    4    0    0  0.35272153206E+02 -0.43110918101E+00  0.46080062527E+02  0.13789557973E+03  0.12509000000E+03 0.  0.
         25    1    3    3    0    0 -0.56818137108E+02 -0.80696646119E+02  0.10801089290E+03  0.19249444274E+03  0.12509000000E+03 0.  0.
<mgrwt>
<rscale>  2 0.44384209E+03</rscale>
<asrwt>0</asrwt>
<pdfrwt beam="1">  1       21 0.51623965E-01 0.44384209E+03</pdfrwt>
<pdfrwt beam="2">  1       21 0.20631357E-01 0.44384209E+03</pdfrwt>
<totfact> 0.72057786E+04</totfact>
</mgrwt>
</event>
<event>
 7    0  0.4709932E-002  0.4511360E+03  0.7546771E-02  0.1027384E+00
         21   -1    0    0  502  501  0.00000000000E+00  0.00000000000E+00  0.76471182279E+02  0.76471182279E+02  0.00000000000E+00 0.  1.
         21   -1    0    0  501  502 -0.00000000000E+00 -0.00000000000E+00 -0.66536074145E+03  0.66536074145E+03  0.00000000000E+00 0.  1.
      99926    2    1    2    0    0  0.00000000000E+00 -0.35527136788E-14 -0.58888955917E+03  0.74183192373E+03  0.45113599963E+03 0.  0.
      99925    2    3    3    0    0 -0.99424218439E+01 -0.20358753632E+02 -0.19563947754E+03  0.32854453534E+03  0.26297029476E+03 0.  0.
         25    1    4    4    0    0 -0.32989638268E+02 -0.33081581941E+02 -0.12283828714E+03  0.18143720728E+03  0.12509000000E+03 0.  0.
         25    1    3    3    0    0  0.99424218439E+01  0.20358753632E+02 -0.39325008163E+03  0.41328738839E+03  0.12509000000E+03 0.  0.
         25    1    4    4    0    0  0.23047216424E+02  0.12722828309E+02 -0.72801190397E+02  0.14710732806E+03  0.12509000000E+03 0.  0.
<mgrwt>
<rscale>  2 0.45113600E+03</rscale>
<asrwt>0</asrwt>
<pdfrwt beam="1">  1       21 0.11245763E-01 0.45113600E+03</pdfrwt>
<pdfrwt beam="2">  1       21 0.97847159E-01 0.45113600E+03</pdfrwt>
<totfact> 0.52259292E+04</totfact>
</mgrwt>
</event>
<event>
 7    0  0.4709932E-002  0.4533397E+03  0.7546771E-02  0.1026731E+00
         21   -1    0    0  502  501  0.00000000000E+00  0.00000000000E+00  0.13646843599E+03  0.13646843599E+03  0.00000000000E+00 0.  1.
         21   -1    0    0  501  502 -0.00000000000E+00 -0.00000000000E+00 -0.37649167602E+03  0.37649167602E+03  0.00000000000E+00 0.  1.
      99926    2    1    2    0    0 -0.88817841970E-15  0.00000000000E+00 -0.24002324003E+03  0.51296011200E+03  0.45333974098E+03 0.  0.
      99925    2    3    3    0    0  0.49051349173E+01 -0.31815686069E+02 -0.31113135235E+02  0.26734407382E+03  0.26356883046E+03 0.  0.
         25    1    4    4    0    0 -0.30344025425E+02 -0.12137576825E+02  0.98571485539E+01  0.12966399704E+03  0.12509000000E+03 0.  0.
         25    1    3    3    0    0 -0.49051349173E+01  0.31815686069E+02 -0.20891010479E+03  0.24561603819E+03  0.12509000000E+03 0.  0.
         25    1    4    4    0    0  0.35249160342E+02 -0.19678109244E+02 -0.40970283789E+02  0.13768007678E+03  0.12509000000E+03 0.  0.
<mgrwt>
<rscale>  2 0.45333974E+03</rscale>
<asrwt>0</asrwt>
<pdfrwt beam="1">  1       21 0.20068888E-01 0.45333974E+03</pdfrwt>
<pdfrwt beam="2">  1       21 0.55366422E-01 0.45333974E+03</pdfrwt>
<totfact> 0.65224523E+04</totfact>
</mgrwt>
</event>
<event>
 7    0  0.4709932E-002  0.4522750E+03  0.7546771E-02  0.1027046E+00
         21   -1    0    0  502  501  0.00000000000E+00  0.00000000000E+00  0.22090256865E+03  0.22090256865E+03  0.00000000000E+00 0. -1.
         21   -1    0    0  501  502 -0.00000000000E+00 -0.00000000000E+00 -0.23149644782E+03  0.23149644782E+03  0.00000000000E+00 0. -1.
      99926    2    1    2    0    0  0.00000000000E+00  0.00000000000E+00 -0.10593879170E+02  0.45239901647E+03  0.45227496042E+03 0.  0.
      99925    2    3    3    0    0  0.43878287293E+02 -0.10174577853E+03 -0.58505860953E+01  0.28522391523E+03  0.26275643649E+03 0.  0.
         25    1    4    4    0    0  0.32012543118E+02 -0.40677235609E+02  0.34697541959E+02  0.13975288166E+03  0.12509000000E+03 0.  0.
         25    1    4    4    0    0  0.11865744175E+02 -0.61068542925E+02 -0.40548128055E+02  0.14547103357E+03  0.12509000000E+03 0.  0.
         25    1    3    3    0    0 -0.43878287293E+02  0.10174577853E+03 -0.47432930747E+01  0.16717510124E+03  0.12509000000E+03 0.  0.
<mgrwt>
<rscale>  2 0.45227496E+03</rscale>
<asrwt>0</asrwt>
<pdfrwt beam="1">  1       21 0.32485672E-01 0.45227496E+03</pdfrwt>
<pdfrwt beam="2">  1       21 0.34043595E-01 0.45227496E+03</pdfrwt>
<totfact> 0.70251865E+04</totfact>
</mgrwt>
</event>
<event>
 7    0  0.4709932E-002  0.4569339E+03  0.7546771E-02  0.1025674E+00
         21   -1    0    0  502  501  0.00000000000E+00  0.00000000000E+00  0.18889395794E+03  0.18889395794E+03  0.00000000000E+00 0.  1.
         21   -1    0    0  501  502 -0.00000000000E+00 -0.00000000000E+00 -0.27633040268E+03  0.27633040268E+03  0.00000000000E+00 0.  1.
      99926    2    1    2    0    0  0.00000000000E+00  0.00000000000E+00 -0.87436444731E+02  0.46522436062E+03  0.45693388345E+03 0.  0.
      99925    2    3    3    0    0 -0.35004903664E+02  0.92710035714E+02 -0.11448316723E+03  0.30336168024E+03  0.26287148848E+03 0.  0.
         25    1    3    3    0    0  0.35004903664E+02 -0.92710035714E+02  0.27046722500E+02  0.16186268038E+03  0.12509000000E+03 0.  0.
         25    1    4    4    0    0 -0.16702446372E+02  0.61541386605E+01 -0.66669706228E+02  0.14286078176E+03  0.12509000000E+03 0.  0.
         25    1    4    4    0    0 -0.18302457292E+02  0.86555897054E+02 -0.47813461003E+02  0.16050089847E+03  0.12509000000E+03 0.  0.
<mgrwt>
<rscale>  2 0.45693388E+03</rscale>
<asrwt>0</asrwt>
<pdfrwt beam="1">  1       21 0.27778524E-01 0.45693388E+03</pdfrwt>
<pdfrwt beam="2">  1       21 0.40636823E-01 0.45693388E+03</pdfrwt>
<totfact> 0.66761296E+04</totfact>
</mgrwt>
</event>
<event>
 7    0  0.4709932E-002  0.4270079E+03  0.7546771E-02  0.1034809E+00
         21   -1    0    0  502  501  0.00000000000E+00  0.00000000000E+00  0.39966119972E+02  0.39966119972E+02  0.00000000000E+00 0. -1.
         21   -1    0    0  501  502 -0.00000000000E+00 -0.00000000000E+00 -0.11405643169E+04  0.11405643169E+04  0.00000000000E+00 0. -1.
      99926    2    1    2    0    0  0.00000000000E+00  0.35527136788E-14 -0.11005981969E+04  0.11805304368E+04  0.42700787029E+03 0.  0.
      99925    2    3    3    0    0  0.49085220422E+01 -0.23426663676E+02 -0.93520796829E+03  0.97178576510E+03  0.26302229400E+03 0.  0.
         25    1    4    4    0    0  0.10097874522E+00  0.28883818708E+02 -0.46463344149E+03  0.48204359578E+03  0.12509000000E+03 0.  0.
         25    1    4    4    0    0  0.48075432970E+01 -0.52310482384E+02 -0.47057452680E+03  0.48974216933E+03  0.12509000000E+03 0.  0.
         25    1    3    3    0    0 -0.49085220422E+01  0.23426663676E+02 -0.16539022859E+03  0.20874467172E+03  0.12509000000E+03 0.  0.
<mgrwt>
<rscale>  2 0.42700787E+03</rscale>
<asrwt>0</asrwt>
<pdfrwt beam="1">  1       21 0.58773715E-02 0.42700787E+03</pdfrwt>
<pdfrwt beam="2">  1       21 0.16773002E+00 0.42700787E+03</pdfrwt>
<totfact> 0.41020389E+04</totfact>
</mgrwt>
</event>
<event>
 7    0  0.4709932E-002  0.4629536E+03  0.7546771E-02  0.1023928E+00
         21   -1    0    0  502  501  0.00000000000E+00  0.00000000000E+00  0.13200117211E+04  0.13200117211E+04  0.00000000000E+00 0.  1.
         21   -1    0    0  501  502 -0.00000000000E+00 -0.00000000000E+00 -0.40591696487E+02  0.40591696487E+02  0.00000000000E+00 0.  1.
      99926    2    1    2    0    0  0.14210854715E-13 -0.71054273576E-14  0.12794200246E+04  0.13606034176E+04  0.46295362680E+03 0.  0.
      99925    2    3    3    0    0 -0.65158680664E+02 -0.55584216473E+02  0.55040837294E+03  0.61599563146E+03  0.26299426265E+03 0.  0.
         25    1    4    4    0    0 -0.65129790785E+02 -0.53118109730E+02  0.27768293913E+03  0.31594104832E+03  0.12509000000E+03 0.  0.
         25    1    3    3    0    0  0.65158680664E+02  0.55584216473E+02  0.72901165166E+03  0.74460778612E+03  0.12509000000E+03 0.  0.
         25    1    4    4    0    0 -0.28889878502E-01 -0.24661067426E+01  0.27272543381E+03  0.30005458314E+03  0.12509000000E+03 0.  0.
<mgrwt>
<rscale>  2 0.46295363E+03</rscale>
<asrwt>0</asrwt>
<pdfrwt beam="1">  1       21 0.19411934E+00 0.46295363E+03</pdfrwt>
<pdfrwt beam="2">  1       21 0.59693680E-02 0.46295363E+03</pdfrwt>
<totfact> 0.25770650E+04</totfact>
</mgrwt>
</event>
<event>
 7    0  0.4709932E-002  0.4582564E+03  0.7546771E-02  0.1025288E+00
         21   -1    0    0  502  501  0.00000000000E+00  0.00000000000E+00  0.34117995748E+03  0.34117995748E+03  0.00000000000E+00 0. -1.
         21   -1    0    0  501  502 -0.00000000000E+00 -0.00000000000E+00 -0.15387693416E+03  0.15387693416E+03  0.00000000000E+00 0. -1.
      99926    2    1    2    0    0  0.00000000000E+00  0.00000000000E+00  0.18730302332E+03  0.49505689164E+03  0.45825637302E+03 0.  0.
      99925    2    3    3    0    0 -0.33065696995E+02  0.10634057572E+03  0.81582593081E+02  0.29700140488E+03  0.26296854687E+03 0.  0.
         25    1    3    3    0    0  0.33065696995E+02 -0.10634057572E+03  0.10572043024E+03  0.19805548675E+03  0.12509000000E+03 0.  0.
         25    1    4    4    0    0 -0.45404196717E+02  0.23760460910E+02  0.38668945265E+02  0.14060190614E+03  0.12509000000E+03 0.  0.
         25    1    4    4    0    0  0.12338499721E+02  0.82580114813E+02  0.42913647816E+02  0.15639949874E+03  0.12509000000E+03 0.  0.
<mgrwt>
<rscale>  2 0.45825637E+03</rscale>
<asrwt>0</asrwt>
<pdfrwt beam="1">  1       21 0.50173523E-01 0.45825637E+03</pdfrwt>
<pdfrwt beam="2">  1       21 0.22628961E-01 0.45825637E+03</pdfrwt>
<totfact> 0.63950100E+04</totfact>
</mgrwt>
</event>
<event>
 7    0  0.4709932E-002  0.4543401E+03  0.7546771E-02  0.1026436E+00
         21   -1    0    0  502  501  0.00000000000E+00  0.00000000000E+00  0.10273125396E+04  0.10273125396E+04  0.00000000000E+00 0. -1.
         21   -1    0    0  501  502 -0.00000000000E+00 -0.00000000000E+00 -0.50234214649E+02  0.50234214649E+02  0.00000000000E+00 0. -1.
      99926    2    1    2    0    0  0.71054273576E-14 -0.71054273576E-14  0.97707832498E+03  0.10775467543E+04  0.45434013086E+03 0.  0.
      99925    2    3    3    0    0 -0.46738160522E+02 -0.62355163666E+02  0.42246114091E+03  0.50368235301E+03  0.26296363829E+03 0.  0.
         25    1    3    3    0    0  0.46738160522E+02  0.62355163666E+02  0.55461718406E+03  0.57386440127E+03  0.12509000000E+03 0.  0.
         25    1    4    4    0    0 -0.10819011566E+02 -0.65690929473E+02  0.25307234191E+03  0.29004390627E+03  0.12509000000E+03 0.  0.
         25    1    4    4    0    0 -0.35919148956E+02  0.33357658075E+01  0.16938879901E+03  0.21363844674E+03  0.12509000000E+03 0.  0.
<mgrwt>
<rscale>  2 0.45434013E+03</rscale>
<asrwt>0</asrwt>
<pdfrwt beam="1">  1       21 0.15107536E+00 0.45434013E+03</pdfrwt>
<pdfrwt beam="2">  1       21 0.73873851E-02 0.45434013E+03</pdfrwt>
<totfact> 0.36469991E+04</totfact>
</mgrwt>
</event>
<event>
 7    0  0.4709932E-002  0.4736347E+03  0.7546771E-02  0.1020899E+00
         21   -1    0    0  502  501  0.00000000000E+00  0.00000000000E+00  0.79202438497E+03  0.79202438497E+03  0.00000000000E+00 0. -1.
         21   -1    0    0  501  502 -0.00000000000E+00 -0.00000000000E+00 -0.70809001922E+02  0.70809001922E+02  0.00000000000E+00 0. -1.
      99926    2    1    2    0    0  0.71054273576E-14 -0.14210854715E-13  0.72121538305E+03  0.86283338689E+03  0.47363469551E+03 0.  0.
      99925    2    3    3    0    0 -0.47261661013E+02  0.79864968915E+02  0.61220115467E+03  0.67271845337E+03  0.26295966583E+03 0.  0.
         25    1    3    3    0    0  0.47261661013E+02 -0.79864968915E+02  0.10901422838E+03  0.19011493353E+03  0.12509000000E+03 0.  0.
         25    1    4    4    0    0 -0.40608794812E+02  0.78900879634E+02  0.35007240667E+03  0.38219448064E+03  0.12509000000E+03 0.  0.
         25    1    4    4    0    0 -0.66528662011E+01  0.96408928119E+00  0.26212874800E+03  0.29052397272E+03  0.12509000000E+03 0.  0.
<mgrwt>
<rscale>  2 0.47363470E+03</rscale>
<asrwt>0</asrwt>
<pdfrwt beam="1">  1       21 0.11647417E+00 0.47363470E+03</pdfrwt>
<pdfrwt beam="2">  1       21 0.10413089E-01 0.47363470E+03</pdfrwt>
<totfact> 0.38869915E+04</totfact>
</mgrwt>
</event>
<event>
 7    0  0.4709932E-002  0.4527999E+03  0.7546771E-02  0.1026890E+00
         21   -1    0    0  502  501  0.00000000000E+00  0.00000000000E+00  0.53963834923E+03  0.53963834923E+03  0.00000000000E+00 0.  1.
         21   -1    0    0  501  502 -0.00000000000E+00 -0.00000000000E+00 -0.94983883301E+02  0.94983883301E+02  0.00000000000E+00 0.  1.
      99926    2    1    2    0    0  0.00000000000E+00  0.00000000000E+00  0.44465446593E+03  0.63462223253E+03  0.45279993811E+03 0.  0.
      99925    2    3    3    0    0  0.67715770158E+02 -0.84030562801E+02  0.32025976597E+03  0.42781771012E+03  0.26232635090E+03 0.  0.
         25    1    4    4    0    0 -0.77484500265E+00 -0.26418995193E+02  0.12035529752E+03  0.17558892173E+03  0.12509000000E+03 0.  0.
         25    1    4    4    0    0  0.68490615161E+02 -0.57611567607E+02  0.19990446845E+03  0.25222878839E+03  0.12509000000E+03 0.  0.
         25    1    3    3    0    0 -0.67715770158E+02  0.84030562801E+02  0.12439469995E+03  0.20680452241E+03  0.12509000000E+03 0.  0.
<mgrwt>
<rscale>  2 0.45279994E+03</rscale>
<asrwt>0</asrwt>
<pdfrwt beam="1">  1       21 0.79358579E-01 0.45279994E+03</pdfrwt>
<pdfrwt beam="2">  1       21 0.13968218E-01 0.45279994E+03</pdfrwt>
<totfact> 0.57589740E+04</totfact>
</mgrwt>
</event>
<event>
 7    0  0.4709932E-002  0.4511987E+03  0.7546771E-02  0.1027365E+00
         21   -1    0    0  502  501  0.00000000000E+00  0.00000000000E+00  0.98441430601E+03  0.98441430601E+03  0.00000000000E+00 0.  1.
         21   -1    0    0  501  502 -0.00000000000E+00 -0.00000000000E+00 -0.51700850776E+02  0.51700850776E+02  0.00000000000E+00 0.  1.
      99926    2    1    2    0    0 -0.17763568394E-14 -0.35527136788E-14  0.93271345523E+03  0.10361151568E+04  0.45119865752E+03 0.  0.
      99925    2    3    3    0    0 -0.86724950714E+01 -0.26267129292E+02  0.34573716498E+03  0.43532080955E+03  0.26306813894E+03 0.  0.
         25    1    4    4    0    0  0.23406457760E+02 -0.22145253649E+02  0.12621924075E+03  0.18060199157E+03  0.12509000000E+03 0.  0.
         25    1    4    4    0    0 -0.32078952831E+02 -0.41218756430E+01  0.21951792424E+03  0.25471881798E+03  0.12509000000E+03 0.  0.
         25    1    3    3    0    0  0.86724950714E+01  0.26267129292E+02  0.58697629025E+03  0.60079434723E+03  0.12509000000E+03 0.  0.
<mgrwt>
<rscale>  2 0.45119866E+03</rscale>
<asrwt>0</asrwt>
<pdfrwt beam="1">  1       21 0.14476680E+00 0.45119866E+03</pdfrwt>
<pdfrwt beam="2">  1       21 0.76030669E-02 0.45119866E+03</pdfrwt>
<totfact> 0.38933610E+04</totfact>
</mgrwt>
</event>
<event>
 7    0  0.4709932E-002  0.4535166E+03  0.7546771E-02  0.1026679E+00
         21   -1    0    0  502  501  0.00000000000E+00  0.00000000000E+00  0.70754970155E+02  0.70754970155E+02  0.00000000000E+00 0. -1.
         21   -1    0    0  501  502 -0.00000000000E+00 -0.00000000000E+00 -0.72672382654E+03  0.72672382654E+03  0.00000000000E+00 0. -1.
      99926    2    1    2    0    0  0.00000000000E+00  0.00000000000E+00 -0.65596885638E+03  0.79747879669E+03  0.45351658253E+03 0.  0.
      99925    2    3    3    0    0 -0.55247536686E+02  0.97057058534E+02 -0.41292638950E+03  0.50220009490E+03  0.26310524369E+03 0.  0.
         25    1    4    4    0    0 -0.67919121186E+02  0.41450513582E+02 -0.20772289918E+03  0.25520082884E+03  0.12509000000E+03 0.  0.
         25    1    4    4    0    0  0.12671584499E+02  0.55606544951E+02 -0.20520349032E+03  0.24699926606E+03  0.12509000000E+03 0.  0.
         25    1    3    3    0    0  0.55247536686E+02 -0.97057058534E+02 -0.24304246688E+03  0.29527870179E+03  0.12509000000E+03 0.  0.
<mgrwt>
<rscale>  2 0.45351658E+03</rscale>
<asrwt>0</asrwt>
<pdfrwt beam="1">  1       21 0.10405144E-01 0.45351658E+03</pdfrwt>
<pdfrwt beam="2">  1       21 0.10687114E+00 0.45351658E+03</pdfrwt>
<totfact> 0.48448574E+04</totfact>
</mgrwt>
</event>
<event>
 7    0  0.4709932E-002  0.4205815E+03  0.7546771E-02  0.1036877E+00
         21   -1    0    0  502  501  0.00000000000E+00  0.00000000000E+00  0.16338367038E+03  0.16338367038E+03  0.00000000000E+00 0. -1.
         21   -1    0    0  501  502 -0.00000000000E+00 -0.00000000000E+00 -0.27066471786E+03  0.27066471786E+03  0.00000000000E+00 0. -1.
      99926    2    1    2    0    0  0.00000000000E+00  0.00000000000E+00 -0.10728104747E+03  0.43404838824E+03  0.42058147865E+03 0.  0.
      99925    2    3    3    0    0 -0.36614684065E+02 -0.52937940267E+02 -0.26943757096E+02  0.27204638537E+03  0.26294525882E+03 0.  0.
         25    1    4    4    0    0 -0.45140803989E+02 -0.36611316916E+02  0.15201780927E+02  0.13876845086E+03  0.12509000000E+03 0.  0.
         25    1    4    4    0    0  0.85261199245E+01 -0.16326623351E+02 -0.42145538023E+02  0.13327793451E+03  0.12509000000E+03 0.  0.
         25    1    3    3    0    0  0.36614684065E+02  0.52937940267E+02 -0.80337290379E+02  0.16200200287E+03  0.12509000000E+03 0.  0.
<mgrwt>
<rscale>  2 0.42058148E+03</rscale>
<asrwt>0</asrwt>
<pdfrwt beam="1">  1       21 0.24027011E-01 0.42058148E+03</pdfrwt>
<pdfrwt beam="2">  1       21 0.39803634E-01 0.42058148E+03</pdfrwt>
<totfact> 0.93155395E+04</totfact>
</mgrwt>
</event>
<event>
 7    0  0.4709932E-002  0.4572318E+03  0.7546771E-02  0.1025587E+00
         21   -1    0    0  502  501  0.00000000000E+00  0.00000000000E+00  0.23241710558E+03  0.23241710558E+03  0.00000000000E+00 0. -1.
         21   -1    0    0  501  502 -0.00000000000E+00 -0.00000000000E+00 -0.22487687308E+03  0.22487687308E+03  0.00000000000E+00 0. -1.
      99926    2    1    2    0    0  0.14210854715E-13  0.00000000000E+00  0.75402324991E+01  0.45729397866E+03  0.45723180971E+03 0.  0.
      99925    2    3    3    0    0  0.84654276511E+02 -0.11338982953E+02 -0.72640814030E+02  0.28591303634E+03  0.26301075534E+03 0.  0.
         25    1    4    4    0    0  0.56340845493E+01 -0.25831221087E+02 -0.32292413759E+02  0.13186850639E+03  0.12509000000E+03 0.  0.
         25    1    3    3    0    0 -0.84654276511E+02  0.11338982953E+02  0.80181046529E+02  0.17138094231E+03  0.12509000000E+03 0.  0.
         25    1    4    4    0    0  0.79020191961E+02  0.14492238134E+02 -0.40348400271E+02  0.15404452995E+03  0.12509000000E+03 0.  0.
<mgrwt>
<rscale>  2 0.45723181E+03</rscale>
<asrwt>0</asrwt>
<pdfrwt beam="1">  1       21 0.34178986E-01 0.45723181E+03</pdfrwt>
<pdfrwt beam="2">  1       21 0.33070128E-01 0.45723181E+03</pdfrwt>
<totfact> 0.67173873E+04</totfact>
</mgrwt>
</event>
<event>
 7    0  0.4709932E-002  0.4674490E+03  0.7546771E-02  0.1022643E+00
         21   -1    0    0  502  501  0.00000000000E+00  0.00000000000E+00  0.71128905947E+02  0.71128905947E+02  0.00000000000E+00 0.  1.
         21   -1    0    0  501  502 -0.00000000000E+00 -0.00000000000E+00 -0.76800196614E+03  0.76800196614E+03  0.00000000000E+00 0.  1.
      99926    2    1    2    0    0  0.00000000000E+00  0.00000000000E+00 -0.69687306020E+03  0.83913087209E+03  0.46744899023E+03 0.  0.
      99925    2    3    3    0    0 -0.68449336651E+02  0.44066265756E+02 -0.60279875552E+03  0.66270913203E+03  0.26303974330E+03 0.  0.
         25    1    4    4    0    0 -0.96790976010E+01 -0.12310575938E+02 -0.27219607063E+03  0.29997240570E+03  0.12509000000E+03 0.  0.
         25    1    3    3    0    0  0.68449336651E+02 -0.44066265756E+02 -0.94074304675E+02  0.17642174006E+03  0.12509000000E+03 0.  0.
         25    1    4    4    0    0 -0.58770239050E+02  0.56376841694E+02 -0.33060268489E+03  0.36273672634E+03  0.12509000000E+03 0.  0.
<mgrwt>
<rscale>  2 0.46744899E+03</rscale>
<asrwt>0</asrwt>
<pdfrwt beam="1">  1       21 0.10460133E-01 0.46744899E+03</pdfrwt>
<pdfrwt beam="2">  1       21 0.11294147E+00 0.46744899E+03</pdfrwt>
<totfact> 0.41704611E+04</totfact>
</mgrwt>
</event>
<event>
 7    0  0.4709932E-002  0.4498982E+03  0.7546771E-02  0.1027752E+00
         21   -1    0    0  502  501  0.00000000000E+00  0.00000000000E+00  0.29285802696E+03  0.29285802696E+03  0.00000000000E+00 0.  1.
         21   -1    0    0  501  502 -0.00000000000E+00 -0.00000000000E+00 -0.17278712273E+03  0.17278712273E+03  0.00000000000E+00 0.  1.
      99926    2    1    2    0    0  0.00000000000E+00  0.00000000000E+00  0.12007090424E+03  0.46564514969E+03  0.44989819225E+03 0.  0.
      99925    2    3    3    0    0  0.48489403709E+02  0.60091306532E+02 -0.26577895152E+01  0.27414572995E+03  0.26303351499E+03 0.  0.
         25    1    3    3    0    0 -0.48489403709E+02 -0.60091306532E+02  0.12272869375E+03  0.19149941974E+03  0.12509000000E+03 0.  0.
         25    1    4    4    0    0  0.75823333583E+01 -0.61871371021E+01  0.12092162561E+02  0.12605356377E+03  0.12509000000E+03 0.  0.
         25    1    4    4    0    0  0.40907070351E+02  0.66278443634E+02 -0.14749952076E+02  0.14809216617E+03  0.12509000000E+03 0.  0.
<mgrwt>
<rscale>  2 0.44989819E+03</rscale>
<asrwt>0</asrwt>
<pdfrwt beam="1">  1       21 0.43067357E-01 0.44989819E+03</pdfrwt>
<pdfrwt beam="2">  1       21 0.25409871E-01 0.44989819E+03</pdfrwt>
<totfact> 0.70574313E+04</totfact>
</mgrwt>
</event>
<event>
 7    0  0.4709932E-002  0.4547348E+03  0.7546771E-02  0.1026319E+00
         21   -1    0    0  502  501  0.00000000000E+00  0.00000000000E+00  0.14634036120E+03  0.14634036120E+03  0.00000000000E+00 0.  1.
         21   -1    0    0  501  502 -0.00000000000E+00 -0.00000000000E+00 -0.35325815743E+03  0.35325815743E+03  0.00000000000E+00 0.  1.
      99926    2    1    2    0    0  0.17763568394E-14  0.00000000000E+00 -0.20691779623E+03  0.49959851864E+03  0.45473476382E+03 0.  0.
      99925    2    3    3    0    0 -0.13083516873E+02  0.37649697004E+02 -0.14481423349E+02  0.26664370799E+03  0.26324983815E+03 0.  0.
         25    1    4    4    0    0 -0.32024335876E+02  0.64543785145E+01 -0.36845718326E+02  0.13443337439E+03  0.12509000000E+03 0.  0.
         25    1    3    3    0    0  0.13083516873E+02 -0.37649697004E+02 -0.19243637288E+03  0.23295481065E+03  0.12509000000E+03 0.  0.
         25    1    4    4    0    0  0.18940819003E+02  0.31195318490E+02  0.22364294977E+02  0.13221033360E+03  0.12509000000E+03 0.  0.
<mgrwt>
<rscale>  2 0.45473476E+03</rscale>
<asrwt>0</asrwt>
<pdfrwt beam="1">  1       21 0.21520641E-01 0.45473476E+03</pdfrwt>
<pdfrwt beam="2">  1       21 0.51949729E-01 0.45473476E+03</pdfrwt>
<totfact> 0.65436541E+04</totfact>
</mgrwt>
</event>
<event>
 7    0  0.4709932E-002  0.4528234E+03  0.7546771E-02  0.1026883E+00
         21   -1    0    0  502  501  0.00000000000E+00  0.00000000000E+00  0.33953614075E+02  0.33953614075E+02  0.00000000000E+00 0.  1.
         21   -1    0    0  501  502 -0.00000000000E+00 -0.00000000000E+00 -0.15097734243E+04  0.15097734243E+04  0.00000000000E+00 0.  1.
      99926    2    1    2    0    0  0.00000000000E+00  0.00000000000E+00 -0.14758198102E+04  0.15437270383E+04  0.45282342779E+03 0.  0.
      99925    2    3    3    0    0  0.41229865440E+02  0.97725274404E+02 -0.81723014961E+03  0.86502387776E+03  0.26296589246E+03 0.  0.
         25    1    4    4    0    0 -0.84803624611E+01  0.45084009177E+02 -0.30584161132E+03  0.33360318305E+03  0.12509000000E+03 0.  0.
         25    1    3    3    0    0 -0.41229865440E+02 -0.97725274404E+02 -0.65858966058E+03  0.67870316058E+03  0.12509000000E+03 0.  0.
         25    1    4    4    0    0  0.49710227902E+02  0.52641265227E+02 -0.51138853829E+03  0.53142069470E+03  0.12509000000E+03 0.  0.
<mgrwt>
<rscale>  2 0.45282343E+03</rscale>
<asrwt>0</asrwt>
<pdfrwt beam="1">  1       21 0.49931764E-02 0.45282343E+03</pdfrwt>
<pdfrwt beam="2">  1       21 0.22202560E+00 0.45282343E+03</pdfrwt>
<totfact> 0.23115803E+04</totfact>
</mgrwt>
</event>
<event>
 7    0  0.4709932E-002  0.4547823E+03  0.7546771E-02  0.1026305E+00
         21   -1    0    0  502  501  0.00000000000E+00  0.00000000000E+00  0.63579893746E+03  0.63579893746E+03  0.00000000000E+00 0. -1.
         21   -1    0    0  501  502 -0.00000000000E+00 -0.00000000000E+00 -0.81325602481E+02  0.81325602481E+02  0.00000000000E+00 0. -1.
      99926    2    1    2    0    0  0.00000000000E+00  0.00000000000E+00  0.55447333498E+03  0.71712453994E+03  0.45478228482E+03 0.  0.
      99925    2    3    3    0    0 -0.75907779776E+02 -0.18936722845E+02  0.47750414521E+03  0.55071433960E+03  0.26297430417E+03 0.  0.
         25    1    4    4    0    0 -0.14414297748E+02 -0.41171815929E+02  0.21106907931E+03  0.24919982895E+03  0.12509000000E+03 0.  0.
         25    1    4    4    0    0 -0.61493482028E+02  0.22235093083E+02  0.26643506589E+03  0.30151451065E+03  0.12509000000E+03 0.  0.
         25    1    3    3    0    0  0.75907779776E+02  0.18936722845E+02  0.76969189774E+02  0.16641020034E+03  0.12509000000E+03 0.  0.
<mgrwt>
<rscale>  2 0.45478228E+03</rscale>
<asrwt>0</asrwt>
<pdfrwt beam="1">  1       21 0.93499841E-01 0.45478228E+03</pdfrwt>
<pdfrwt beam="2">  1       21 0.11959648E-01 0.45478228E+03</pdfrwt>
<totfact> 0.52072204E+04</totfact>
</mgrwt>
</event>
<event>
 6    0  0.4709932E-002  0.4534193E+03  0.7546771E-02  0.1026707E+00
         21   -1    0    0  502  501  0.00000000000E+00  0.00000000000E+00  0.92848135017E+02  0.92848135017E+02  0.00000000000E+00 0. -1.
         21   -1    0    0  501  502 -0.00000000000E+00 -0.00000000000E+00 -0.55356271051E+03  0.55356271051E+03  0.00000000000E+00 0. -1.
      99926    2    1    2    0    0  0.00000000000E+00  0.00000000000E+00 -0.46071457550E+03  0.64641084553E+03  0.45341929948E+03 0.  0.
         25    1    3    3    0    0 -0.66551817781E+02 -0.74219984994E+02 -0.24889175258E+03  0.29585868793E+03  0.12509000000E+03 0.  0.
         25    1    3    3    0    0 -0.27659254064E+01  0.41984941033E+02 -0.11311405872E+03  0.17381796224E+03  0.12509000000E+03 0.  0.
         25    1    3    3    0    0  0.69317743188E+02  0.32235043961E+02 -0.98708764194E+02  0.17673419536E+03  0.12509000000E+03 0.  0.
<mgrwt>
<rscale>  2 0.45341930E+03</rscale>
<asrwt>0</asrwt>
<pdfrwt beam="1">  1       21 0.13654138E-01 0.45341930E+03</pdfrwt>
<pdfrwt beam="2">  1       21 0.81406278E-01 0.45341930E+03</pdfrwt>
<totfact> 0.56611462E+04</totfact>
</mgrwt>
</event>
<event>
 7    0  0.4709932E-002  0.4552913E+03  0.7546771E-02  0.1026156E+00
         21   -1    0    0  502  501  0.00000000000E+00  0.00000000000E+00  0.14275362406E+03  0.14275362406E+03  0.00000000000E+00 0. -1.
         21   -1    0    0  501  502 -0.00000000000E+00 -0.00000000000E+00 -0.36302091646E+03  0.36302091646E+03  0.00000000000E+00 0. -1.
      99926    2    1    2    0    0  0.00000000000E+00  0.00000000000E+00 -0.22026729240E+03  0.50577454053E+03  0.45529134161E+03 0.  0.
      99925    2    3    3    0    0 -0.69577106970E+02 -0.27577893227E+02 -0.43926016377E+02  0.27698365842E+03  0.26303790241E+03 0.  0.
         25    1    4    4    0    0 -0.27090282459E+02 -0.39885517171E+02 -0.52622036295E+02  0.14401848731E+03  0.12509000000E+03 0.  0.
         25    1    4    4    0    0 -0.42486824510E+02  0.12307623944E+02  0.86960199174E+01  0.13296517110E+03  0.12509000000E+03 0.  0.
         25    1    3    3    0    0  0.69577106970E+02  0.27577893227E+02 -0.17634127602E+03  0.22879088211E+03  0.12509000000E+03 0.  0.
<mgrwt>
<rscale>  2 0.45529134E+03</rscale>
<asrwt>0</asrwt>
<pdfrwt beam="1">  1       21 0.20993180E-01 0.45529134E+03</pdfrwt>
<pdfrwt beam="2">  1       21 0.53385428E-01 0.45529134E+03</pdfrwt>
<totfact> 0.64717075E+04</totfact>
</mgrwt>
</event>
<event>
 7    0  0.4709932E-002  0.4573668E+03  0.7546771E-02  0.1025548E+00
         21   -1    0    0  502  501  0.00000000000E+00  0.00000000000E+00  0.13235047005E+04  0.13235047005E+04  0.00000000000E+00 0.  1.
         21   -1    0    0  501  502 -0.00000000000E+00 -0.00000000000E+00 -0.39513344412E+02  0.39513344412E+02  0.00000000000E+00 0.  1.
      99926    2    1    2    0    0  0.00000000000E+00  0.00000000000E+00  0.12839913561E+04  0.13630180450E+04  0.45736679837E+03 0.  0.
      99925    2    3    3    0    0  0.10620528794E+03 -0.39789632818E+02  0.87100958153E+03  0.91685189617E+03  0.26286294972E+03 0.  0.
         25    1    4    4    0    0  0.88813557903E+02 -0.31909641252E+02  0.54727342827E+03  0.56926425030E+03  0.12509000000E+03 0.  0.
         25    1    4    4    0    0  0.17391730035E+02 -0.78799915664E+01  0.32373615326E+03  0.34758764588E+03  0.12509000000E+03 0.  0.
         25    1    3    3    0    0 -0.10620528794E+03  0.39789632818E+02  0.41298177460E+03  0.44616614878E+03  0.12509000000E+03 0.  0.
<mgrwt>
<rscale>  2 0.45736680E+03</rscale>
<asrwt>0</asrwt>
<pdfrwt beam="1">  1       21 0.19463301E+00 0.45736680E+03</pdfrwt>
<pdfrwt beam="2">  1       21 0.58107868E-02 0.45736680E+03</pdfrwt>
<totfact> 0.26837290E+04</totfact>
</mgrwt>
</event>
<event>
 7    0  0.4709932E-002  0.4502668E+03  0.7546771E-02  0.1027643E+00
         21   -1    0    0  502  501  0.00000000000E+00  0.00000000000E+00  0.34916835841E+03  0.34916835841E+03  0.00000000000E+00 0. -1.
         21   -1    0    0  501  502 -0.00000000000E+00 -0.00000000000E+00 -0.14515930612E+03  0.14515930612E+03  0.00000000000E+00 0. -1.
      99926    2    1    2    0    0  0.00000000000E+00  0.00000000000E+00  0.20400905229E+03  0.49432766453E+03  0.45026675038E+03 0.  0.
      99925    2    3    3    0    0 -0.83339785276E+02  0.69250968887E+02  0.13814698232E+03  0.31620821904E+03  0.26298637334E+03 0.  0.
         25    1    4    4    0    0 -0.32807960497E+02  0.32547495307E+02  0.11161222228E+03  0.17389795279E+03  0.12509000000E+03 0.  0.
         25    1    3    3    0    0  0.83339785276E+02 -0.69250968887E+02  0.65862069969E+02  0.17811944549E+03  0.12509000000E+03 0.  0.
         25    1    4    4    0    0 -0.50531824778E+02  0.36703473580E+02  0.26534760039E+02  0.14231026624E+03  0.12509000000E+03 0.  0.
<mgrwt>
<rscale>  2 0.45026675E+03</rscale>
<asrwt>0</asrwt>
<pdfrwt beam="1">  1       21 0.51348288E-01 0.45026675E+03</pdfrwt>
<pdfrwt beam="2">  1       21 0.21346957E-01 0.45026675E+03</pdfrwt>
<totfact> 0.68197704E+04</totfact>
</mgrwt>
</event>
<event>
 7    0  0.4709932E-002  0.4531160E+03  0.7546771E-02  0.1026797E+00
         21   -1    0    0  502  501  0.00000000000E+00  0.00000000000E+00  0.45836959944E+02  0.45836959944E+02  0.00000000000E+00 0. -1.
         21   -1    0    0  501  502 -0.00000000000E+00 -0.00000000000E+00 -0.11198063442E+04  0.11198063442E+04  0.00000000000E+00 0. -1.
      99926    2    1    2    0    0  0.00000000000E+00  0.00000000000E+00 -0.10739693843E+04  0.11656433042E+04  0.45311596108E+03 0.  0.
      99925    2    3    3    0    0  0.11033528346E+03 -0.54434293226E+01 -0.69407916524E+03  0.75071247581E+03  0.26385569545E+03 0.  0.
         25    1    4    4    0    0  0.51909044827E+02 -0.24951539060E+02 -0.25210392602E+03  0.28726473130E+03  0.12509000000E+03 0.  0.
         25    1    3    3    0    0 -0.11033528346E+03  0.54434293226E+01 -0.37989021906E+03  0.41493082838E+03  0.12509000000E+03 0.  0.
         25    1    4    4    0    0  0.58426238632E+02  0.19508109737E+02 -0.44197523922E+03  0.46344774451E+03  0.12509000000E+03 0.  0.
<mgrwt>
<rscale>  2 0.45311596E+03</rscale>
<asrwt>0</asrwt>
<pdfrwt beam="1">  1       21 0.67407284E-02 0.45311596E+03</pdfrwt>
<pdfrwt beam="2">  1       21 0.16467743E+00 0.45311596E+03</pdfrwt>
<totfact> 0.33757221E+04</totfact>
</mgrwt>
</event>
<event>
 7    0  0.4709932E-002  0.4573796E+03  0.7546771E-02  0.1025544E+00
         21   -1    0    0  502  501  0.00000000000E+00  0.00000000000E+00  0.55206232951E+03  0.55206232951E+03  0.00000000000E+00 0.  1.
         21   -1    0    0  501  502 -0.00000000000E+00 -0.00000000000E+00 -0.94733930300E+02  0.94733930300E+02  0.00000000000E+00 0.  1.
      99926    2    1    2    0    0 -0.35527136788E-14  0.14210854715E-13  0.45732839921E+03  0.64679625981E+03  0.45737964207E+03 0.  0.
      99925    2    3    3    0    0 -0.25229783802E+02 -0.93388128481E+02  0.19830730299E+03  0.34332085566E+03  0.26303144106E+03 0.  0.
         25    1    3    3    0    0  0.25229783802E+02  0.93388128481E+02  0.25902109623E+03  0.30347540415E+03  0.12509000000E+03 0.  0.
         25    1    4    4    0    0 -0.24548716384E+01 -0.10557745182E+02  0.65251395483E+02  0.14150174943E+03  0.12509000000E+03 0.  0.
         25    1    4    4    0    0 -0.22774912164E+02 -0.82830383299E+02  0.13305590750E+03  0.20181910624E+03  0.12509000000E+03 0.  0.
<mgrwt>
<rscale>  2 0.45737964E+03</rscale>
<asrwt>0</asrwt>
<pdfrwt beam="1">  1       21 0.81185635E-01 0.45737964E+03</pdfrwt>
<pdfrwt beam="2">  1       21 0.13931461E-01 0.45737964E+03</pdfrwt>
<totfact> 0.54849347E+04</totfact>
</mgrwt>
</event>
<event>
 7    0  0.4709932E-002  0.4591921E+03  0.7546771E-02  0.1025016E+00
         21   -1    0    0  502  501  0.00000000000E+00  0.00000000000E+00  0.31377963875E+03  0.31377963875E+03  0.00000000000E+00 0. -1.
         21   -1    0    0  501  502 -0.00000000000E+00 -0.00000000000E+00 -0.16799796791E+03  0.16799796791E+03  0.00000000000E+00 0. -1.
      99926    2    1    2    0    0  0.00000000000E+00  0.71054273576E-14  0.14578167085E+03  0.48177760666E+03  0.45919208042E+03 0.  0.
      99925    2    3    3    0    0 -0.78994130377E+02  0.63037282996E+02  0.29547618506E+02  0.28335473826E+03  0.26306477197E+03 0.  0.
         25    1    4    4    0    0 -0.55194449940E+02  0.23231943088E+02 -0.21829916274E+02  0.14039303340E+03  0.12509000000E+03 0.  0.
         25    1    3    3    0    0  0.78994130377E+02 -0.63037282996E+02  0.11623405234E+03  0.19842286840E+03  0.12509000000E+03 0.  0.
         25    1    4    4    0    0 -0.23799680437E+02  0.39805339908E+02  0.51377534780E+02  0.14296170485E+03  0.12509000000E+03 0.  0.
<mgrwt>
<rscale>  2 0.45919208E+03</rscale>
<asrwt>0</asrwt>
<pdfrwt beam="1">  1       21 0.46144065E-01 0.45919208E+03</pdfrwt>
<pdfrwt beam="2">  1       21 0.24705583E-01 0.45919208E+03</pdfrwt>
<totfact> 0.64401239E+04</totfact>
</mgrwt>
</event>
<event>
 7    0  0.4709932E-002  0.4524336E+03  0.7546771E-02  0.1026999E+00
         21   -1    0    0  502  501  0.00000000000E+00  0.00000000000E+00  0.18737025281E+02  0.18737025281E+02  0.00000000000E+00 0.  1.
         21   -1    0    0  501  502 -0.00000000000E+00 -0.00000000000E+00 -0.27311724881E+04  0.27311724881E+04  0.00000000000E+00 0.  1.
      99926    2    1    2    0    0 -0.71054273576E-14  0.00000000000E+00 -0.27124354628E+04  0.27499095134E+04  0.45243363250E+03 0.  0.
      99925    2    3    3    0    0  0.60412372529E+02 -0.81610747243E+02 -0.19843902739E+04  0.20042505605E+04  0.26249872618E+03 0.  0.
         25    1    4    4    0    0  0.29327536372E+02 -0.45587290159E+02 -0.71967992902E+03  0.73247867801E+03  0.12509000000E+03 0.  0.
         25    1    3    3    0    0 -0.60412372529E+02  0.81610747243E+02 -0.72804518889E+03  0.74565895286E+03  0.12509000000E+03 0.  0.
         25    1    4    4    0    0  0.31084836157E+02 -0.36023457084E+02 -0.12647103449E+04  0.12717718825E+04  0.12509000000E+03 0.  0.
<mgrwt>
<rscale>  2 0.45243363E+03</rscale>
<asrwt>0</asrwt>
<pdfrwt beam="1">  1       21 0.27554442E-02 0.45243363E+03</pdfrwt>
<pdfrwt beam="2">  1       21 0.40164311E+00 0.45243363E+03</pdfrwt>
<totfact> 0.49970182E+03</totfact>
</mgrwt>
</event>
<event>
 7    0  0.4709932E-002  0.4537203E+03  0.7546771E-02  0.1026618E+00
         21   -1    0    0  502  501  0.00000000000E+00  0.00000000000E+00  0.68479500776E+02  0.68479500776E+02  0.00000000000E+00 0.  1.
         21   -1    0    0  501  502 -0.00000000000E+00 -0.00000000000E+00 -0.75154651583E+03  0.75154651583E+03  0.00000000000E+00 0.  1.
      99926    2    1    2    0    0  0.53290705182E-14  0.14210854715E-13 -0.68306701506E+03  0.82002601661E+03  0.45372031127E+03 0.  0.
      99925    2    3    3    0    0 -0.12994325749E+02 -0.85494364423E+02 -0.30191245702E+03  0.40965491131E+03  0.26303588312E+03 0.  0.
         25    1    3    3    0    0  0.12994325749E+02  0.85494364423E+02 -0.38115455803E+03  0.41037110529E+03  0.12509000000E+03 0.  0.
         25    1    4    4    0    0 -0.37021366367E+02 -0.20177458685E+02 -0.16779172601E+03  0.21349305100E+03  0.12509000000E+03 0.  0.
         25    1    4    4    0    0  0.24027040618E+02 -0.65316905738E+02 -0.13412073101E+03  0.19616186032E+03  0.12509000000E+03 0.  0.
<mgrwt>
<rscale>  2 0.45372031E+03</rscale>
<asrwt>0</asrwt>
<pdfrwt beam="1">  1       21 0.10070515E-01 0.45372031E+03</pdfrwt>
<pdfrwt beam="2">  1       21 0.11052154E+00 0.45372031E+03</pdfrwt>
<totfact> 0.47284400E+04</totfact>
</mgrwt>
</event>
<event>
 7    0  0.4709932E-002  0.4515486E+03  0.7546771E-02  0.1027261E+00
         21   -1    0    0  502  501  0.00000000000E+00  0.00000000000E+00  0.12387542039E+04  0.12387542039E+04  0.00000000000E+00 0.  1.
         21   -1    0    0  501  502 -0.00000000000E+00 -0.00000000000E+00 -0.41149430751E+02  0.41149430751E+02  0.00000000000E+00 0.  1.
      99926    2    1    2    0    0  0.00000000000E+00 -0.35527136788E-14  0.11976047731E+04  0.12799036346E+04  0.45154858134E+03 0.  0.
      99925    2    3    3    0    0  0.59738974580E+02 -0.16743259819E+02  0.10130394959E+04  0.10484712871E+04  0.26304740588E+03 0.  0.
         25    1    4    4    0    0  0.63166635176E+02  0.30447796007E+01  0.44859620579E+03  0.46998442360E+03  0.12509000000E+03 0.  0.
         25    1    4    4    0    0 -0.34276605960E+01 -0.19788039419E+02  0.56444329009E+03  0.57848686346E+03  0.12509000000E+03 0.  0.
         25    1    3    3    0    0 -0.59738974580E+02  0.16743259819E+02  0.18456527722E+03  0.23143234754E+03  0.12509000000E+03 0.  0.
<mgrwt>
<rscale>  2 0.45154858E+03</rscale>
<asrwt>0</asrwt>
<pdfrwt beam="1">  1       21 0.18216971E+00 0.45154858E+03</pdfrwt>
<pdfrwt beam="2">  1       21 0.60513877E-02 0.45154858E+03</pdfrwt>
<totfact> 0.30515128E+04</totfact>
</mgrwt>
</event>
<event>
 7    0  0.4709932E-002  0.4554991E+03  0.7546771E-02  0.1026095E+00
         21   -1    0    0  502  501  0.00000000000E+00  0.00000000000E+00  0.51884528796E+02  0.51884528796E+02  0.00000000000E+00 0. -1.
         21   -1    0    0  501  502 -0.00000000000E+00 -0.00000000000E+00 -0.99971745057E+03  0.99971745057E+03  0.00000000000E+00 0. -1.
      99926    2    1    2    0    0 -0.35527136788E-14 -0.71054273576E-14 -0.94783292177E+03  0.10516019794E+04  0.45549914974E+03 0.  0.
      99925    2    3    3    0    0 -0.23446443937E+02 -0.54810268516E+02 -0.81960732531E+03  0.86280787735E+03  0.26292083266E+03 0.  0.
         25    1    4    4    0    0 -0.19182438555E+02  0.95533885088E+01 -0.33733857732E+03  0.36042205403E+03  0.12509000000E+03 0.  0.
         25    1    3    3    0    0  0.23446443937E+02  0.54810268516E+02 -0.12822559646E+03  0.18879410202E+03  0.12509000000E+03 0.  0.
         25    1    4    4    0    0 -0.42640053818E+01 -0.64363657025E+02 -0.48226874799E+03  0.50238582332E+03  0.12509000000E+03 0.  0.
<mgrwt>
<rscale>  2 0.45549915E+03</rscale>
<asrwt>0</asrwt>
<pdfrwt beam="1">  1       21 0.76300777E-02 0.45549915E+03</pdfrwt>
<pdfrwt beam="2">  1       21 0.14701727E+00 0.45549915E+03</pdfrwt>
<totfact> 0.37074010E+04</totfact>
</mgrwt>
</event>
<event>
 7    0  0.4709932E-002  0.4561809E+03  0.7546771E-02  0.1025895E+00
         21   -1    0    0  502  501  0.00000000000E+00  0.00000000000E+00  0.10691125180E+03  0.10691125180E+03  0.00000000000E+00 0.  1.
         21   -1    0    0  501  502 -0.00000000000E+00 -0.00000000000E+00 -0.48662103865E+03  0.48662103865E+03  0.00000000000E+00 0.  1.
      99926    2    1    2    0    0  0.00000000000E+00  0.00000000000E+00 -0.37970978685E+03  0.59353229045E+03  0.45618094829E+03 0.  0.
      99925    2    3    3    0    0 -0.47219805084E+01  0.71515887901E+02 -0.35452805203E+03  0.44718186445E+03  0.26295372387E+03 0.  0.
         25    1    4    4    0    0  0.12371823683E+02  0.88774112944E+01 -0.12274947364E+03  0.17591705953E+03  0.12509000000E+03 0.  0.
         25    1    4    4    0    0 -0.17093804191E+02  0.62638476606E+02 -0.23177857838E+03  0.27126480492E+03  0.12509000000E+03 0.  0.
         25    1    3    3    0    0  0.47219805084E+01 -0.71515887901E+02 -0.25181734822E+02  0.14635042600E+03  0.12509000000E+03 0.  0.
<mgrwt>
<rscale>  2 0.45618095E+03</rscale>
<asrwt>0</asrwt>
<pdfrwt beam="1">  1       21 0.15722243E-01 0.45618095E+03</pdfrwt>
<pdfrwt beam="2">  1       21 0.71561917E-01 0.45618095E+03</pdfrwt>
<totfact> 0.58529985E+04</totfact>
</mgrwt>
</event>
<event>
 7    0  0.4709932E-002  0.4495897E+03  0.7546771E-02  0.1027844E+00
         21   -1    0    0  502  501  0.00000000000E+00  0.00000000000E+00  0.41815493049E+03  0.41815493049E+03  0.00000000000E+00 0. -1.
         21   -1    0    0  501  502 -0.00000000000E+00 -0.00000000000E+00 -0.12084688726E+03  0.12084688726E+03  0.00000000000E+00 0. -1.
      99926    2    1    2    0    0 -0.35527136788E-14  0.00000000000E+00  0.29730804323E+03  0.53900181775E+03  0.44958968735E+03 0.  0.
      99925    2    3    3    0    0 -0.27453452628E+02 -0.91978561198E+02  0.12823697060E+03  0.30781729517E+03  0.26285550935E+03 0.  0.
         25    1    4    4    0    0  0.40071536265E+00 -0.13403203280E+02  0.83432144945E+02  0.15095773362E+03  0.12509000000E+03 0.  0.
         25    1    3    3    0    0  0.27453452628E+02  0.91978561198E+02  0.16907107263E+03  0.23118452258E+03  0.12509000000E+03 0.  0.
         25    1    4    4    0    0 -0.27854167991E+02 -0.78575357919E+02  0.44804825659E+02  0.15685956155E+03  0.12509000000E+03 0.  0.
<mgrwt>
<rscale>  2 0.44958969E+03</rscale>
<asrwt>0</asrwt>
<pdfrwt beam="1">  1       21 0.61493372E-01 0.44958969E+03</pdfrwt>
<pdfrwt beam="2">  1       21 0.17771601E-01 0.44958969E+03</pdfrwt>
<totfact> 0.65352794E+04</totfact>
</mgrwt>
</event>
<event>
 7    0  0.4709932E-002  0.4546046E+03  0.7546771E-02  0.1026358E+00
         21   -1    0    0  502  501  0.00000000000E+00  0.00000000000E+00  0.22549980085E+03  0.22549980085E+03  0.00000000000E+00 0. -1.
         21   -1    0    0  501  502 -0.00000000000E+00 -0.00000000000E+00 -0.22911922474E+03  0.22911922474E+03  0.00000000000E+00 0. -1.
      99926    2    1    2    0    0 -0.17763568394E-14  0.00000000000E+00 -0.36194238826E+01  0.45461902559E+03  0.45460461744E+03 0.  0.
      99925    2    3    3    0    0  0.13733285141E+02 -0.73479678076E+02  0.82166212610E+02  0.28551979514E+03  0.26302547540E+03 0.  0.
         25    1    4    4    0    0  0.44721391719E+02 -0.50263835325E+02  0.51024563629E+02  0.15092206668E+03  0.12509000000E+03 0.  0.
         25    1    4    4    0    0 -0.30988106578E+02 -0.23215842751E+02  0.31141648981E+02  0.13459772845E+03  0.12509000000E+03 0.  0.
         25    1    3    3    0    0 -0.13733285141E+02  0.73479678076E+02 -0.85785636492E+02  0.16909923045E+03  0.12509000000E+03 0.  0.
<mgrwt>
<rscale>  2 0.45460462E+03</rscale>
<asrwt>0</asrwt>
<pdfrwt beam="1">  1       21 0.33161736E-01 0.45460462E+03</pdfrwt>
<pdfrwt beam="2">  1       21 0.33694004E-01 0.45460462E+03</pdfrwt>
<totfact> 0.68790469E+04</totfact>
</mgrwt>
</event>
<event>
 7    0  0.4709932E-002  0.4521155E+03  0.7546771E-02  0.1027093E+00
         21   -1    0    0  502  501  0.00000000000E+00  0.00000000000E+00  0.41023070557E+02  0.41023070557E+02  0.00000000000E+00 0.  1.
         21   -1    0    0  501  502 -0.00000000000E+00 -0.00000000000E+00 -0.12456918292E+04  0.12456918292E+04  0.00000000000E+00 0.  1.
      99926    2    1    2    0    0  0.00000000000E+00  0.26645352591E-14 -0.12046687587E+04  0.12867148998E+04  0.45211548880E+03 0.  0.
      99925    2    3    3    0    0  0.64279640693E+02  0.72135630688E+01 -0.10143188782E+04  0.10499354818E+04  0.26332075784E+03 0.  0.
         25    1    3    3    0    0 -0.64279640693E+02 -0.72135630688E+01 -0.19034988046E+03  0.23677941801E+03  0.12509000000E+03 0.  0.
         25    1    4    4    0    0  0.65368656504E+02  0.26592556125E+02 -0.49536239900E+03  0.51576316244E+03  0.12509000000E+03 0.  0.
         25    1    4    4    0    0 -0.10890158110E+01 -0.19378993056E+02 -0.51895647919E+03  0.53417231931E+03  0.12509000000E+03 0.  0.
<mgrwt>
<rscale>  2 0.45211549E+03</rscale>
<asrwt>0</asrwt>
<pdfrwt beam="1">  1       21 0.60328042E-02 0.45211549E+03</pdfrwt>
<pdfrwt beam="2">  1       21 0.18318998E+00 0.45211549E+03</pdfrwt>
<totfact> 0.30174349E+04</totfact>
</mgrwt>
</event>
<event>
 7    0  0.4709932E-002  0.4739194E+03  0.7546771E-02  0.1020820E+00
         21   -1    0    0  502  501  0.00000000000E+00  0.00000000000E+00  0.78230895557E+03  0.78230895557E+03  0.00000000000E+00 0. -1.
         21   -1    0    0  501  502 -0.00000000000E+00 -0.00000000000E+00 -0.71774568429E+02  0.71774568429E+02  0.00000000000E+00 0. -1.
      99926    2    1    2    0    0 -0.35527136788E-14 -0.14210854715E-13  0.71053438714E+03  0.85408352399E+03  0.47391935037E+03 0.  0.
      99925    2    3    3    0    0  0.31684837908E+02  0.10870007260E+03  0.55529031172E+03  0.62480669179E+03  0.26309016909E+03 0.  0.
         25    1    4    4    0    0 -0.14718744298E+02  0.23532280561E+02  0.24935380427E+03  0.28034842155E+03  0.12509000000E+03 0.  0.
         25    1    3    3    0    0 -0.31684837908E+02 -0.10870007260E+03  0.15524407541E+03  0.22927683221E+03  0.12509000000E+03 0.  0.
         25    1    4    4    0    0  0.46403582206E+02  0.85167792035E+02  0.30593650745E+03  0.34445827023E+03  0.12509000000E+03 0.  0.
<mgrwt>
<rscale>  2 0.47391935E+03</rscale>
<asrwt>0</asrwt>
<pdfrwt beam="1">  1       21 0.11504543E+00 0.47391935E+03</pdfrwt>
<pdfrwt beam="2">  1       21 0.10555084E-01 0.47391935E+03</pdfrwt>
<totfact> 0.39119934E+04</totfact>
</mgrwt>
</event>
<event>
 7    0  0.4709932E-002  0.4536846E+03  0.7546771E-02  0.1026629E+00
         21   -1    0    0  502  501  0.00000000000E+00  0.00000000000E+00  0.13708604186E+03  0.13708604186E+03  0.00000000000E+00 0. -1.
         21   -1    0    0  501  502 -0.00000000000E+00 -0.00000000000E+00 -0.37536593882E+03  0.37536593882E+03  0.00000000000E+00 0. -1.
      99926    2    1    2    0    0  0.00000000000E+00  0.00000000000E+00 -0.23827989695E+03  0.51245198068E+03  0.45368460764E+03 0.  0.
      99925    2    3    3    0    0  0.91291078755E+02  0.13442324982E+02 -0.78534763275E+02  0.28956013920E+03  0.26298784765E+03 0.  0.
         25    1    4    4    0    0  0.75881907743E+02  0.18774201358E+02 -0.69583314294E+02  0.16309469730E+03  0.12509000000E+03 0.  0.
         25    1    3    3    0    0 -0.91291078755E+02 -0.13442324982E+02 -0.15974513368E+03  0.22289184147E+03  0.12509000000E+03 0.  0.
         25    1    4    4    0    0  0.15409171012E+02 -0.53318763757E+01 -0.89514489811E+01  0.12646544190E+03  0.12509000000E+03 0.  0.
<mgrwt>
<rscale>  2 0.45368461E+03</rscale>
<asrwt>0</asrwt>
<pdfrwt beam="1">  1       21 0.20159712E-01 0.45368461E+03</pdfrwt>
<pdfrwt beam="2">  1       21 0.55200872E-01 0.45368461E+03</pdfrwt>
<totfact> 0.65081120E+04</totfact>
</mgrwt>
</event>
<event>
 7    0  0.4709932E-002  0.4555387E+03  0.7546771E-02  0.1026083E+00
         21   -1    0    0  502  501  0.00000000000E+00  0.00000000000E+00  0.19958862435E+03  0.19958862435E+03  0.00000000000E+00 0. -1.
         21   -1    0    0  501  502 -0.00000000000E+00 -0.00000000000E+00 -0.25992903398E+03  0.25992903398E+03  0.00000000000E+00 0. -1.
      99926    2    1    2    0    0  0.00000000000E+00  0.00000000000E+00 -0.60340409631E+02  0.45951765833E+03  0.45553870668E+03 0.  0.
      99925    2    3    3    0    0 -0.53134522239E+02  0.50743488247E+02 -0.12545688861E+03  0.30050242954E+03  0.26299068463E+03 0.  0.
         25    1    4    4    0    0 -0.35580417028E+02  0.49854712496E+02 -0.30778667430E+02  0.14264043222E+03  0.12509000000E+03 0.  0.
         25    1    4    4    0    0 -0.17554105211E+02  0.88877575097E+00 -0.94678221179E+02  0.15786199732E+03  0.12509000000E+03 0.  0.
         25    1    3    3    0    0  0.53134522239E+02 -0.50743488247E+02  0.65116478978E+02  0.15901522879E+03  0.12509000000E+03 0.  0.
<mgrwt>
<rscale>  2 0.45553871E+03</rscale>
<asrwt>0</asrwt>
<pdfrwt beam="1">  1       21 0.29351269E-01 0.45553871E+03</pdfrwt>
<pdfrwt beam="2">  1       21 0.38224858E-01 0.45553871E+03</pdfrwt>
<totfact> 0.67923453E+04</totfact>
</mgrwt>
</event>
<event>
 7    0  0.4709932E-002  0.4509868E+03  0.7546771E-02  0.1027428E+00
         21   -1    0    0  502  501  0.00000000000E+00  0.00000000000E+00  0.61797388892E+02  0.61797388892E+02  0.00000000000E+00 0. -1.
         21   -1    0    0  501  502 -0.00000000000E+00 -0.00000000000E+00 -0.82280600032E+03  0.82280600032E+03  0.00000000000E+00 0. -1.
      99926    2    1    2    0    0  0.71054273576E-14  0.00000000000E+00 -0.76100861142E+03  0.88460338921E+03  0.45098675095E+03 0.  0.
      99925    2    3    3    0    0  0.35675862008E+02  0.47332017250E+02 -0.30005167626E+03  0.40331149113E+03  0.26289934092E+03 0.  0.
         25    1    4    4    0    0  0.35758203187E+02 -0.11197392172E+02 -0.13022676323E+03  0.18441949097E+03  0.12509000000E+03 0.  0.
         25    1    3    3    0    0 -0.35675862008E+02 -0.47332017250E+02 -0.46095693516E+03  0.48129189808E+03  0.12509000000E+03 0.  0.
         25    1    4    4    0    0 -0.82341178845E-01  0.58529409422E+02 -0.16982491303E+03  0.21889200016E+03  0.12509000000E+03 0.  0.
<mgrwt>
<rscale>  2 0.45098675E+03</rscale>
<asrwt>0</asrwt>
<pdfrwt beam="1">  1       21 0.90878518E-02 0.45098675E+03</pdfrwt>
<pdfrwt beam="2">  1       21 0.12100088E+00 0.45098675E+03</pdfrwt>
<totfact> 0.45313553E+04</totfact>
</mgrwt>
</event>
<event>
 7    0  0.4709932E-002  0.4598093E+03  0.7546771E-02  0.1024837E+00
         21   -1    0    0  502  501  0.00000000000E+00  0.00000000000E+00  0.20439393833E+04  0.20439393833E+04  0.00000000000E+00 0.  1.
         21   -1    0    0  501  502 -0.00000000000E+00 -0.00000000000E+00 -0.25859944547E+02  0.25859944547E+02  0.00000000000E+00 0.  1.
      99926    2    1    2    0    0  0.00000000000E+00  0.00000000000E+00  0.20180794388E+04  0.20697993278E+04  0.45980934792E+03 0.  0.
      99925    2    3    3    0    0 -0.77436566934E+02  0.84512502270E+02  0.13864075833E+04  0.14157384546E+04  0.26277480786E+03 0.  0.
         25    1    4    4    0    0 -0.13635062835E+02  0.20652731508E+02  0.49973389928E+03  0.51574599218E+03  0.12509000000E+03 0.  0.
         25    1    3    3    0    0  0.77436566934E+02 -0.84512502270E+02  0.63167185541E+03  0.65406087328E+03  0.12509000000E+03 0.  0.
         25    1    4    4    0    0 -0.63801504100E+02  0.63859770761E+02  0.88667368407E+03  0.89999246239E+03  0.12509000000E+03 0.  0.
<mgrwt>
<rscale>  2 0.45980935E+03</rscale>
<asrwt>0</asrwt>
<pdfrwt beam="1">  1       21 0.30057921E+00 0.45980935E+03</pdfrwt>
<pdfrwt beam="2">  1       21 0.38029344E-02 0.45980935E+03</pdfrwt>
<totfact> 0.12143786E+04</totfact>
</mgrwt>
</event>
<event>
 7    0  0.4709932E-002  0.4513822E+03  0.7546771E-02  0.1027311E+00
         21   -1    0    0  502  501  0.00000000000E+00  0.00000000000E+00  0.10303862299E+03  0.10303862299E+03  0.00000000000E+00 0.  1.
         21   -1    0    0  501  502 -0.00000000000E+00 -0.00000000000E+00 -0.49434342733E+03  0.49434342733E+03  0.00000000000E+00 0.  1.
      99926    2    1    2    0    0  0.17763568394E-14  0.35527136788E-14 -0.39130480434E+03  0.59738205032E+03  0.45138217084E+03 0.  0.
      99925    2    3    3    0    0 -0.99782659492E+01 -0.28431307105E+02 -0.38669099824E+03  0.46863151510E+03  0.26301647060E+03 0.  0.
         25    1    3    3    0    0  0.99782659492E+01  0.28431307105E+02 -0.46138061004E+01  0.12875053523E+03  0.12509000000E+03 0.  0.
         25    1    4    4    0    0 -0.18194587582E+02  0.10640678464E+01 -0.25401913354E+03  0.28373474155E+03  0.12509000000E+03 0.  0.
         25    1    4    4    0    0  0.82163216331E+01 -0.29495374951E+02 -0.13267186470E+03  0.18489677354E+03  0.12509000000E+03 0.  0.
<mgrwt>
<rscale>  2 0.45138217E+03</rscale>
<asrwt>0</asrwt>
<pdfrwt beam="1">  1       21 0.15152739E-01 0.45138217E+03</pdfrwt>
<pdfrwt beam="2">  1       21 0.72697562E-01 0.45138217E+03</pdfrwt>
<totfact> 0.60552234E+04</totfact>
</mgrwt>
</event>
<event>
 7    0  0.4709932E-002  0.4742647E+03  0.7546771E-02  0.1020723E+00
         21   -1    0    0  502  501  0.00000000000E+00  0.00000000000E+00  0.11087662497E+03  0.11087662497E+03  0.00000000000E+00 0.  1.
         21   -1    0    0  501  502 -0.00000000000E+00 -0.00000000000E+00 -0.50715597079E+03  0.50715597079E+03  0.00000000000E+00 0.  1.
      99926    2    1    2    0    0  0.00000000000E+00  0.00000000000E+00 -0.39627934582E+03  0.61803259576E+03  0.47426466187E+03 0.  0.
      99925    2    3    3    0    0  0.10982225593E+03 -0.28609844812E+02 -0.32928823360E+03  0.43633293055E+03  0.26282358034E+03 0.  0.
         25    1    3    3    0    0 -0.10982225593E+03  0.28609844812E+02 -0.66991112221E+02  0.18169966520E+03  0.12509000000E+03 0.  0.
         25    1    4    4    0    0  0.24600095390E+02 -0.36728399929E+01 -0.10828428240E+03  0.16730704815E+03  0.12509000000E+03 0.  0.
         25    1    4    4    0    0  0.85222160542E+02 -0.24937004819E+02 -0.22100395119E+03  0.26902588240E+03  0.12509000000E+03 0.  0.
<mgrwt>
<rscale>  2 0.47426466E+03</rscale>
<asrwt>0</asrwt>
<pdfrwt beam="1">  1       21 0.16305386E-01 0.47426466E+03</pdfrwt>
<pdfrwt beam="2">  1       21 0.74581759E-01 0.47426466E+03</pdfrwt>
<totfact> 0.49594147E+04</totfact>
</mgrwt>
</event>
<event>
 7    0  0.4709932E-002  0.4649874E+03  0.7546771E-02  0.1023345E+00
         21   -1    0    0  502  501  0.00000000000E+00  0.00000000000E+00  0.31142968706E+03  0.31142968706E+03  0.00000000000E+00 0.  1.
         21   -1    0    0  501  502 -0.00000000000E+00 -0.00000000000E+00 -0.17356505020E+03  0.17356505020E+03  0.00000000000E+00 0.  1.
      99926    2    1    2    0    0  0.00000000000E+00  0.00000000000E+00  0.13786463685E+03  0.48499473726E+03  0.46498735152E+03 0.  0.
      99925    2    3    3    0    0 -0.72808440162E+02  0.67659569013E+02  0.16032147032E+03  0.32365440223E+03  0.26300249428E+03 0.  0.
         25    1    4    4    0    0 -0.35691980951E+02  0.20652708823E+02  0.33928966178E+02  0.13601152426E+03  0.12509000000E+03 0.  0.
         25    1    4    4    0    0 -0.37116459211E+02  0.47006860190E+02  0.12639250415E+03  0.18764287797E+03  0.12509000000E+03 0.  0.
         25    1    3    3    0    0  0.72808440162E+02 -0.67659569013E+02 -0.22456833469E+02  0.16134033503E+03  0.12509000000E+03 0.  0.
<mgrwt>
<rscale>  2 0.46498735E+03</rscale>
<asrwt>0</asrwt>
<pdfrwt beam="1">  1       21 0.45798484E-01 0.46498735E+03</pdfrwt>
<pdfrwt beam="2">  1       21 0.25524272E-01 0.46498735E+03</pdfrwt>
<totfact> 0.61330439E+04</totfact>
</mgrwt>
</event>
<event>
 7    0  0.4709932E-002  0.4518153E+03  0.7546771E-02  0.1027182E+00
         21   -1    0    0  502  501  0.00000000000E+00  0.00000000000E+00  0.17712432618E+03  0.17712432618E+03  0.00000000000E+00 0. -1.
         21   -1    0    0  501  502 -0.00000000000E+00 -0.00000000000E+00 -0.28812685723E+03  0.28812685723E+03  0.00000000000E+00 0. -1.
      99926    2    1    2    0    0  0.00000000000E+00  0.71054273576E-14 -0.11100253105E+03  0.46525118342E+03  0.45181534035E+03 0.  0.
      99925    2    3    3    0    0  0.48014984248E+02 -0.53441815434E+02 -0.15744130628E+03  0.31370734721E+03  0.26165448290E+03 0.  0.
         25    1    4    4    0    0  0.11510146324E+02  0.10742090479E+02 -0.74027682731E+02  0.14620356318E+03  0.12509000000E+03 0.  0.
         25    1    3    3    0    0 -0.48014984248E+02  0.53441815434E+02  0.46438775225E+02  0.15154383621E+03  0.12509000000E+03 0.  0.
         25    1    4    4    0    0  0.36504837924E+02 -0.64183905913E+02 -0.83413623545E+02  0.16750378403E+03  0.12509000000E+03 0.  0.
<mgrwt>
<rscale>  2 0.45181534E+03</rscale>
<asrwt>0</asrwt>
<pdfrwt beam="1">  1       21 0.26047695E-01 0.45181534E+03</pdfrwt>
<pdfrwt beam="2">  1       21 0.42371597E-01 0.45181534E+03</pdfrwt>
<totfact> 0.69530604E+04</totfact>
</mgrwt>
</event>
<event>
 7    0  0.4709932E-002  0.4550331E+03  0.7546771E-02  0.1026232E+00
         21   -1    0    0  502  501  0.00000000000E+00  0.00000000000E+00  0.20048437219E+03  0.20048437219E+03  0.00000000000E+00 0. -1.
         21   -1    0    0  501  502 -0.00000000000E+00 -0.00000000000E+00 -0.25819361037E+03  0.25819361037E+03  0.00000000000E+00 0. -1.
      99926    2    1    2    0    0  0.17763568394E-14 -0.14210854715E-13 -0.57709238181E+02  0.45867798255E+03  0.45503311474E+03 0.  0.
      99925    2    3    3    0    0  0.11707155397E+02 -0.93797416861E+02 -0.99724983031E+02  0.29635779338E+03  0.26257923863E+03 0.  0.
         25    1    3    3    0    0 -0.11707155397E+02  0.93797416861E+02  0.42015744849E+02  0.16232018917E+03  0.12509000000E+03 0.  0.
         25    1    4    4    0    0 -0.12492439545E+02 -0.76072803865E+02 -0.76439267632E+02  0.16563092184E+03  0.12509000000E+03 0.  0.
         25    1    4    4    0    0  0.24199594942E+02 -0.17724612996E+02 -0.23285715399E+02  0.13072687154E+03  0.12509000000E+03 0.  0.
<mgrwt>
<rscale>  2 0.45503311E+03</rscale>
<asrwt>0</asrwt>
<pdfrwt beam="1">  1       21 0.29482996E-01 0.45503311E+03</pdfrwt>
<pdfrwt beam="2">  1       21 0.37969648E-01 0.45503311E+03</pdfrwt>
<totfact> 0.68258968E+04</totfact>
</mgrwt>
</event>
<event>
 7    0  0.4709932E-002  0.4558636E+03  0.7546771E-02  0.1025988E+00
         21   -1    0    0  502  501  0.00000000000E+00  0.00000000000E+00  0.24391094068E+03  0.24391094068E+03  0.00000000000E+00 0. -1.
         21   -1    0    0  501  502 -0.00000000000E+00 -0.00000000000E+00 -0.21299947855E+03  0.21299947855E+03  0.00000000000E+00 0. -1.
      99926    2    1    2    0    0  0.00000000000E+00  0.00000000000E+00  0.30911462130E+02  0.45691041924E+03  0.45586359003E+03 0.  0.
      99925    2    3    3    0    0 -0.10246629428E+03 -0.46291327487E+02  0.38229224797E+02  0.28855577507E+03  0.26298428324E+03 0.  0.
         25    1    4    4    0    0 -0.22338363097E+02 -0.51793490960E+02  0.13869212682E+02  0.13791820522E+03  0.12509000000E+03 0.  0.
         25    1    4    4    0    0 -0.80127931179E+02  0.55021634730E+01  0.24360012114E+02  0.15063756984E+03  0.12509000000E+03 0.  0.
         25    1    3    3    0    0  0.10246629428E+03  0.46291327487E+02 -0.73177626662E+01  0.16835464417E+03  0.12509000000E+03 0.  0.
<mgrwt>
<rscale>  2 0.45586359E+03</rscale>
<asrwt>0</asrwt>
<pdfrwt beam="1">  1       21 0.35869256E-01 0.45586359E+03</pdfrwt>
<pdfrwt beam="2">  1       21 0.31323453E-01 0.45586359E+03</pdfrwt>
<totfact> 0.67936780E+04</totfact>
</mgrwt>
</event>
<event>
 7    0  0.4709932E-002  0.4546185E+03  0.7546771E-02  0.1026354E+00
         21   -1    0    0  502  501  0.00000000000E+00  0.00000000000E+00  0.28464889182E+04  0.28464889182E+04  0.00000000000E+00 0. -1.
         21   -1    0    0  501  502 -0.00000000000E+00 -0.00000000000E+00 -0.18152009649E+02  0.18152009649E+02  0.00000000000E+00 0. -1.
      99926    2    1    2    0    0 -0.35527136788E-14  0.00000000000E+00  0.28283369085E+04  0.28646409278E+04  0.45461849636E+03 0.  0.
      99925    2    3    3    0    0  0.40018203961E+01  0.12252565135E+02  0.24863871406E+04  0.25003013996E+04  0.26309681895E+03 0.  0.
         25    1    4    4    0    0  0.36599640195E+02 -0.13662043551E+02  0.11606310057E+04  0.11680060036E+04  0.12509000000E+03 0.  0.
         25    1    4    4    0    0 -0.32597819799E+02  0.25914608686E+02  0.13257561349E+04  0.13322953960E+04  0.12509000000E+03 0.  0.
         25    1    3    3    0    0 -0.40018203961E+01 -0.12252565135E+02  0.34194976793E+03  0.36433952820E+03  0.12509000000E+03 0.  0.
<mgrwt>
<rscale>  2 0.45461850E+03</rscale>
<asrwt>0</asrwt>
<pdfrwt beam="1">  1       21 0.41860100E+00 0.45461850E+03</pdfrwt>
<pdfrwt beam="2">  1       21 0.26694151E-02 0.45461850E+03</pdfrwt>
<totfact> 0.40862760E+03</totfact>
</mgrwt>
</event>
<event>
 7    0  0.4709932E-002  0.4504943E+03  0.7546771E-02  0.1027575E+00
         21   -1    0    0  502  501  0.00000000000E+00  0.00000000000E+00  0.57694576670E+03  0.57694576670E+03  0.00000000000E+00 0.  1.
         21   -1    0    0  501  502 -0.00000000000E+00 -0.00000000000E+00 -0.87939415847E+02  0.87939415847E+02  0.00000000000E+00 0.  1.
      99926    2    1    2    0    0  0.00000000000E+00  0.00000000000E+00  0.48900635085E+03  0.66488518254E+03  0.45049427831E+03 0.  0.
      99925    2    3    3    0    0 -0.33105157636E+02 -0.56383212650E+02  0.18072171319E+03  0.32582479847E+03  0.26310918560E+03 0.  0.
         25    1    3    3    0    0  0.33105157636E+02  0.56383212650E+02  0.30828463766E+03  0.33906038407E+03  0.12509000000E+03 0.  0.
         25    1    4    4    0    0 -0.29150398602E+02 -0.14628595231E+02  0.45873706828E+02  0.13717013748E+03  0.12509000000E+03 0.  0.
         25    1    4    4    0    0 -0.39547590346E+01 -0.41754617419E+02  0.13484800636E+03  0.18865466099E+03  0.12509000000E+03 0.  0.
<mgrwt>
<rscale>  2 0.45049428E+03</rscale>
<asrwt>0</asrwt>
<pdfrwt beam="1">  1       21 0.84844964E-01 0.45049428E+03</pdfrwt>
<pdfrwt beam="2">  1       21 0.12932267E-01 0.45049428E+03</pdfrwt>
<totfact> 0.56843560E+04</totfact>
</mgrwt>
</event>
<event>
 7    0  0.4709932E-002  0.4550322E+03  0.7546771E-02  0.1026232E+00
         21   -1    0    0  502  501  0.00000000000E+00  0.00000000000E+00  0.95064839524E+03  0.95064839524E+03  0.00000000000E+00 0. -1.
         21   -1    0    0  501  502 -0.00000000000E+00 -0.00000000000E+00 -0.54450819736E+02  0.54450819736E+02  0.00000000000E+00 0. -1.
      99926    2    1    2    0    0  0.71054273576E-14  0.00000000000E+00  0.89619757551E+03  0.10050992150E+04  0.45503223799E+03 0.  0.
      99925    2    3    3    0    0 -0.54155291239E+02  0.91429253808E+02  0.47461028973E+03  0.55268850374E+03  0.26252152487E+03 0.  0.
         25    1    4    4    0    0 -0.67117077436E+02  0.52620895052E+02  0.24340705106E+03  0.28664989322E+03  0.12509000000E+03 0.  0.
         25    1    3    3    0    0  0.54155291239E+02 -0.91429253808E+02  0.42158728578E+03  0.45241071124E+03  0.12509000000E+03 0.  0.
         25    1    4    4    0    0  0.12961786197E+02  0.38808358756E+02  0.23120323868E+03  0.26603861052E+03  0.12509000000E+03 0.  0.
<mgrwt>
<rscale>  2 0.45503224E+03</rscale>
<asrwt>0</asrwt>
<pdfrwt beam="1">  1       21 0.13980122E+00 0.45503224E+03</pdfrwt>
<pdfrwt beam="2">  1       21 0.80074741E-02 0.45503224E+03</pdfrwt>
<totfact> 0.38959234E+04</totfact>
</mgrwt>
</event>
<event>
 7    0  0.4709932E-002  0.4613016E+03  0.7546771E-02  0.1024404E+00
         21   -1    0    0  502  501  0.00000000000E+00  0.00000000000E+00  0.50978907035E+03  0.50978907035E+03  0.00000000000E+00 0.  1.
         21   -1    0    0  501  502 -0.00000000000E+00 -0.00000000000E+00 -0.10435646882E+03  0.10435646882E+03  0.00000000000E+00 0.  1.
      99926    2    1    2    0    0  0.35527136788E-14 -0.11102230246E-14  0.40543260153E+03  0.61414553917E+03  0.46130158130E+03 0.  0.
      99925    2    3    3    0    0  0.30152097594E+02 -0.14539453470E+01  0.10039688635E+03  0.28307823698E+03  0.26294959691E+03 0.  0.
         25    1    4    4    0    0 -0.94428724694E+01 -0.10463591770E+02  0.16200476052E+02  0.12691973100E+03  0.12509000000E+03 0.  0.
         25    1    4    4    0    0  0.39594970064E+02  0.90096464232E+01  0.84196410296E+02  0.15615850598E+03  0.12509000000E+03 0.  0.
         25    1    3    3    0    0 -0.30152097594E+02  0.14539453470E+01  0.30503571518E+03  0.33106730219E+03  0.12509000000E+03 0.  0.
<mgrwt>
<rscale>  2 0.46130158E+03</rscale>
<asrwt>0</asrwt>
<pdfrwt beam="1">  1       21 0.74968980E-01 0.46130158E+03</pdfrwt>
<pdfrwt beam="2">  1       21 0.15346540E-01 0.46130158E+03</pdfrwt>
<totfact> 0.55025645E+04</totfact>
</mgrwt>
</event>
<event>
 7    0  0.4709932E-002  0.4592557E+03  0.7546771E-02  0.1024997E+00
         21   -1    0    0  502  501  0.00000000000E+00  0.00000000000E+00  0.64457931598E+02  0.64457931598E+02  0.00000000000E+00 0. -1.
         21   -1    0    0  501  502 -0.00000000000E+00 -0.00000000000E+00 -0.81803659009E+03  0.81803659009E+03  0.00000000000E+00 0. -1.
      99926    2    1    2    0    0  0.17763568394E-14  0.00000000000E+00 -0.75357865849E+03  0.88249452169E+03  0.45925568725E+03 0.  0.
      99925    2    3    3    0    0  0.15399183079E+02 -0.56466129947E+02 -0.66723158429E+03  0.71961762341E+03  0.26310830122E+03 0.  0.
         25    1    4    4    0    0  0.36325821252E+02 -0.57390291986E+02 -0.37153917550E+03  0.39787193660E+03  0.12509000000E+03 0.  0.
         25    1    3    3    0    0 -0.15399183079E+02  0.56466129947E+02 -0.86347074198E+02  0.16287689828E+03  0.12509000000E+03 0.  0.
         25    1    4    4    0    0 -0.20926638173E+02  0.92416203932E+00 -0.29569240879E+03  0.32174568680E+03  0.12509000000E+03 0.  0.
<mgrwt>
<rscale>  2 0.45925569E+03</rscale>
<asrwt>0</asrwt>
<pdfrwt beam="1">  1       21 0.94791085E-02 0.45925569E+03</pdfrwt>
<pdfrwt beam="2">  1       21 0.12029949E+00 0.45925569E+03</pdfrwt>
<totfact> 0.42562843E+04</totfact>
</mgrwt>
</event>
<event>
 7    0  0.4709932E-002  0.4564574E+03  0.7546771E-02  0.1025814E+00
         21   -1    0    0  502  501  0.00000000000E+00  0.00000000000E+00  0.29865268864E+03  0.29865268864E+03  0.00000000000E+00 0.  1.
         21   -1    0    0  501  502 -0.00000000000E+00 -0.00000000000E+00 -0.17441112238E+03  0.17441112238E+03  0.00000000000E+00 0.  1.
      99926    2    1    2    0    0  0.00000000000E+00  0.00000000000E+00  0.12424156625E+03  0.47306381102E+03  0.45645744874E+03 0.  0.
      99925    2    3    3    0    0 -0.57911804413E+02 -0.10805743010E+02 -0.24070736736E+02  0.27029648502E+03  0.26269801727E+03 0.  0.
         25    1    3    3    0    0  0.57911804413E+02  0.10805743010E+02  0.14831230299E+03  0.20276732599E+03  0.12509000000E+03 0.  0.
         25    1    4    4    0    0 -0.25911942534E+02  0.20298456484E+00  0.27762910279E+02  0.13072779833E+03  0.12509000000E+03 0.  0.
         25    1    4    4    0    0 -0.31999861879E+02 -0.11008727575E+02 -0.51833647015E+02  0.13956868670E+03  0.12509000000E+03 0.  0.
<mgrwt>
<rscale>  2 0.45645745E+03</rscale>
<asrwt>0</asrwt>
<pdfrwt beam="1">  1       21 0.43919513E-01 0.45645745E+03</pdfrwt>
<pdfrwt beam="2">  1       21 0.25648694E-01 0.45645745E+03</pdfrwt>
<totfact> 0.66437015E+04</totfact>
</mgrwt>
</event>
<event>
 7    0  0.4709932E-002  0.4556337E+03  0.7546771E-02  0.1026055E+00
         21   -1    0    0  502  501  0.00000000000E+00  0.00000000000E+00  0.35646329633E+02  0.35646329633E+02  0.00000000000E+00 0. -1.
         21   -1    0    0  501  502 -0.00000000000E+00 -0.00000000000E+00 -0.14559848373E+04  0.14559848373E+04  0.00000000000E+00 0. -1.
      99926    2    1    2    0    0  0.71054273576E-14  0.35527136788E-14 -0.14203385077E+04  0.14916311670E+04  0.45563369258E+03 0.  0.
      99925    2    3    3    0    0  0.46015898022E+02  0.16527561854E+02 -0.55719812395E+03  0.61810414774E+03  0.26304441629E+03 0.  0.
         25    1    3    3    0    0 -0.46015898022E+02 -0.16527561854E+02 -0.86314038376E+03  0.87352701925E+03  0.12509000000E+03 0.  0.
         25    1    4    4    0    0  0.52635135624E+02 -0.19658621278E+02 -0.28071046910E+03  0.31241445943E+03  0.12509000000E+03 0.  0.
         25    1    4    4    0    0 -0.66192376023E+01  0.36186183132E+02 -0.27648765485E+03  0.30568968831E+03  0.12509000000E+03 0.  0.
<mgrwt>
<rscale>  2 0.45563369E+03</rscale>
<asrwt>0</asrwt>
<pdfrwt beam="1">  1       21 0.52421087E-02 0.45563369E+03</pdfrwt>
<pdfrwt beam="2">  1       21 0.21411536E+00 0.45563369E+03</pdfrwt>
<totfact> 0.23867290E+04</totfact>
</mgrwt>
</event>
<event>
 7    0  0.4709932E-002  0.4503474E+03  0.7546771E-02  0.1027618E+00
         21   -1    0    0  502  501  0.00000000000E+00  0.00000000000E+00  0.79988652078E+03  0.79988652078E+03  0.00000000000E+00 0.  1.
         21   -1    0    0  501  502 -0.00000000000E+00 -0.00000000000E+00 -0.63387995031E+02  0.63387995031E+02  0.00000000000E+00 0.  1.
      99926    2    1    2    0    0  0.00000000000E+00  0.00000000000E+00  0.73649852575E+03  0.86327451581E+03  0.45034743390E+03 0.  0.
      99925    2    3    3    0    0 -0.16916090373E+02 -0.37679921068E+02  0.65837872659E+03  0.71012053550E+03  0.26287391797E+03 0.  0.
         25    1    3    3    0    0  0.16916090373E+02  0.37679921068E+02  0.78119799166E+02  0.15315398032E+03  0.12509000000E+03 0.  0.
         25    1    4    4    0    0 -0.19097656505E+02  0.12588745364E+02  0.38194815013E+03  0.40256067181E+03  0.12509000000E+03 0.  0.
         25    1    4    4    0    0  0.21815661317E+01 -0.50268666432E+02  0.27643057645E+03  0.30755986369E+03  0.12509000000E+03 0.  0.
<mgrwt>
<rscale>  2 0.45034743E+03</rscale>
<asrwt>0</asrwt>
<pdfrwt beam="1">  1       21 0.11763036E+00 0.45034743E+03</pdfrwt>
<pdfrwt beam="2">  1       21 0.93217645E-02 0.45034743E+03</pdfrwt>
<totfact> 0.46525861E+04</totfact>
</mgrwt>
</event>
<event>
 7    0  0.4709932E-002  0.4274733E+03  0.7546771E-02  0.1034661E+00
         21   -1    0    0  502  501  0.00000000000E+00  0.00000000000E+00  0.89697836932E+02  0.89697836932E+02  0.00000000000E+00 0. -1.
         21   -1    0    0  501  502 -0.00000000000E+00 -0.00000000000E+00 -0.50930280594E+03  0.50930280594E+03  0.00000000000E+00 0. -1.
      99926    2    1    2    0    0  0.00000000000E+00  0.00000000000E+00 -0.41960496901E+03  0.59900064287E+03  0.42747332097E+03 0.  0.
      99925    2    3    3    0    0  0.18852051994E+02  0.36800276974E+02 -0.37510235047E+03  0.45994075863E+03  0.26293358072E+03 0.  0.
         25    1    3    3    0    0 -0.18852051994E+02 -0.36800276974E+02 -0.44502618538E+02  0.13905988425E+03  0.12509000000E+03 0.  0.
         25    1    4    4    0    0  0.78303604581E+01  0.58617091753E+02 -0.20691426803E+03  0.24891424308E+03  0.12509000000E+03 0.  0.
         25    1    4    4    0    0  0.11021691536E+02 -0.21816814779E+02 -0.16818808244E+03  0.21102651555E+03  0.12509000000E+03 0.  0.
<mgrwt>
<rscale>  2 0.42747332E+03</rscale>
<asrwt>0</asrwt>
<pdfrwt beam="1">  1       21 0.13190858E-01 0.42747332E+03</pdfrwt>
<pdfrwt beam="2">  1       21 0.74897472E-01 0.42747332E+03</pdfrwt>
<totfact> 0.73458433E+04</totfact>
</mgrwt>
</event>
<event>
 7    0  0.4709932E-002  0.4553123E+03  0.7546771E-02  0.1026150E+00
         21   -1    0    0  502  501  0.00000000000E+00  0.00000000000E+00  0.11419549422E+03  0.11419549422E+03  0.00000000000E+00 0. -1.
         21   -1    0    0  501  502 -0.00000000000E+00 -0.00000000000E+00 -0.45384738611E+03  0.45384738611E+03  0.00000000000E+00 0. -1.
      99926    2    1    2    0    0  0.00000000000E+00 -0.35527136788E-14 -0.33965189190E+03  0.56804288033E+03  0.45531231724E+03 0.  0.
      99925    2    3    3    0    0  0.63141491494E+02 -0.19221839885E+02 -0.98531642765E+02  0.28850252597E+03  0.26299980188E+03 0.  0.
         25    1    3    3    0    0 -0.63141491494E+02  0.19221839885E+02 -0.24112024913E+03  0.27954035436E+03  0.12509000000E+03 0.  0.
         25    1    4    4    0    0  0.37385259018E+02 -0.30550561336E+02 -0.13740807090E+02  0.13478617240E+03  0.12509000000E+03 0.  0.
         25    1    4    4    0    0  0.25756232476E+02  0.11328721450E+02 -0.84790835674E+02  0.15371635357E+03  0.12509000000E+03 0.  0.
<mgrwt>
<rscale>  2 0.45531232E+03</rscale>
<asrwt>0</asrwt>
<pdfrwt beam="1">  1       21 0.16793455E-01 0.45531232E+03</pdfrwt>
<pdfrwt beam="2">  1       21 0.66742262E-01 0.45531232E+03</pdfrwt>
<totfact> 0.60540069E+04</totfact>
</mgrwt>
</event>
<event>
 6    0  0.6054170E-002  0.4190855E+03  0.7546771E-02  0.1037364E+00
         21   -1    0    0  502  501  0.00000000000E+00  0.00000000000E+00  0.40019254003E+03  0.40019254003E+03  0.00000000000E+00 0.  1.
         21   -1    0    0  501  502 -0.00000000000E+00 -0.00000000000E+00 -0.10971759948E+03  0.10971759948E+03  0.00000000000E+00 0.  1.
      99926    2    1    2    0    0  0.00000000000E+00  0.00000000000E+00  0.29047494055E+03  0.50991013950E+03  0.41908550354E+03 0.  0.
         25    1    3    3    0    0 -0.23649573739E+02  0.27697063850E+02  0.91350074187E+02  0.15911874132E+03  0.12509000000E+03 0.  0.
         25    1    3    3    0    0 -0.18645806521E+02 -0.38792500873E+02  0.29490477922E+02  0.13553494241E+03  0.12509000000E+03 0.  0.
         25    1    3    3    0    0  0.42295380259E+02  0.11095437023E+02  0.16963438844E+03  0.21525645578E+03  0.12509000000E+03 0.  0.
<mgrwt>
<rscale>  2 0.41908550E+03</rscale>
<asrwt>0</asrwt>
<pdfrwt beam="1">  1       21 0.58851844E-01 0.41908550E+03</pdfrwt>
<pdfrwt beam="2">  1       21 0.16134941E-01 0.41908550E+03</pdfrwt>
<totfact> 0.86765624E+04</totfact>
</mgrwt>
</event>
<event>
 7    0  0.4709932E-002  0.4577329E+03  0.7546771E-02  0.1025441E+00
         21   -1    0    0  502  501  0.00000000000E+00  0.00000000000E+00  0.88799094572E+02  0.88799094572E+02  0.00000000000E+00 0. -1.
         21   -1    0    0  501  502 -0.00000000000E+00 -0.00000000000E+00 -0.58986929229E+03  0.58986929229E+03  0.00000000000E+00 0. -1.
      99926    2    1    2    0    0  0.00000000000E+00  0.00000000000E+00 -0.50107019772E+03  0.67866838686E+03  0.45773293118E+03 0.  0.
      99925    2    3    3    0    0 -0.49860279980E+02  0.22061036987E+02 -0.46577226583E+03  0.53772091804E+03  0.26311070903E+03 0.  0.
         25    1    3    3    0    0  0.49860279980E+02 -0.22061036987E+02 -0.35297931890E+02  0.14094746883E+03  0.12509000000E+03 0.  0.
         25    1    4    4    0    0 -0.10476512684E+02  0.27604365628E+02 -0.16192700950E+03  0.20673563511E+03  0.12509000000E+03 0.  0.
         25    1    4    4    0    0 -0.39383767296E+02 -0.55433286411E+01 -0.30384525633E+03  0.33098528292E+03  0.12509000000E+03 0.  0.
<mgrwt>
<rscale>  2 0.45773293E+03</rscale>
<asrwt>0</asrwt>
<pdfrwt beam="1">  1       21 0.13058691E-01 0.45773293E+03</pdfrwt>
<pdfrwt beam="2">  1       21 0.86745482E-01 0.45773293E+03</pdfrwt>
<totfact> 0.52927966E+04</totfact>
</mgrwt>
</event>
<event>
 7    0  0.4709932E-002  0.4595729E+03  0.7546771E-02  0.1024905E+00
         21   -1    0    0  502  501  0.00000000000E+00  0.00000000000E+00  0.63294174344E+03  0.63294174344E+03  0.00000000000E+00 0.  1.
         21   -1    0    0  501  502 -0.00000000000E+00 -0.00000000000E+00 -0.83422878224E+02  0.83422878224E+02  0.00000000000E+00 0.  1.
      99926    2    1    2    0    0  0.00000000000E+00  0.00000000000E+00  0.54951886521E+03  0.71636462166E+03  0.45957294083E+03 0.  0.
      99925    2    3    3    0    0 -0.64402763432E+02 -0.97314962098E+02  0.32826199342E+03  0.43668618273E+03  0.26328875418E+03 0.  0.
         25    1    3    3    0    0  0.64402763432E+02  0.97314962098E+02  0.22125687179E+03  0.27967843893E+03  0.12509000000E+03 0.  0.
         25    1    4    4    0    0 -0.74348086544E+02 -0.50567491315E+02  0.17251798585E+03  0.23128915386E+03  0.12509000000E+03 0.  0.
         25    1    4    4    0    0  0.99453231117E+01 -0.46747470782E+02  0.15574400757E+03  0.20539702887E+03  0.12509000000E+03 0.  0.
<mgrwt>
<rscale>  2 0.45957294E+03</rscale>
<asrwt>0</asrwt>
<pdfrwt beam="1">  1       21 0.93079666E-01 0.45957294E+03</pdfrwt>
<pdfrwt beam="2">  1       21 0.12268071E-01 0.45957294E+03</pdfrwt>
<totfact> 0.50193379E+04</totfact>
</mgrwt>
</event>
<event>
 7    0  0.4709932E-002  0.4877077E+03  0.7546771E-02  0.1017038E+00
         21   -1    0    0  502  501  0.00000000000E+00  0.00000000000E+00  0.46490482917E+03  0.46490482917E+03  0.00000000000E+00 0. -1.
         21   -1    0    0  501  502 -0.00000000000E+00 -0.00000000000E+00 -0.12790726290E+03  0.12790726290E+03  0.00000000000E+00 0. -1.
      99926    2    1    2    0    0 -0.14210854715E-13  0.00000000000E+00  0.33699756627E+03  0.59281209207E+03  0.48770771659E+03 0.  0.
      99925    2    3    3    0    0 -0.10274879712E+03 -0.49706300268E+02  0.30839592803E+03  0.42107510302E+03  0.26299840753E+03 0.  0.
         25    1    4    4    0    0 -0.85503145101E+02 -0.15277502429E+01  0.16542595927E+03  0.22433541393E+03  0.12509000000E+03 0.  0.
         25    1    4    4    0    0 -0.17245652022E+02 -0.48178550025E+02  0.14296996875E+03  0.19673968909E+03  0.12509000000E+03 0.  0.
         25    1    3    3    0    0  0.10274879712E+03  0.49706300268E+02  0.28601638248E+02  0.17173698905E+03  0.12509000000E+03 0.  0.
<mgrwt>
<rscale>  2 0.48770772E+03</rscale>
<asrwt>0</asrwt>
<pdfrwt beam="1">  1       21 0.68368357E-01 0.48770772E+03</pdfrwt>
<pdfrwt beam="2">  1       21 0.18809892E-01 0.48770772E+03</pdfrwt>
<totfact> 0.46020127E+04</totfact>
</mgrwt>
</event>
<event>
 7    0  0.4709932E-002  0.4500125E+03  0.7546771E-02  0.1027718E+00
         21   -1    0    0  502  501  0.00000000000E+00  0.00000000000E+00  0.12542740701E+03  0.12542740701E+03  0.00000000000E+00 0. -1.
         21   -1    0    0  501  502 -0.00000000000E+00 -0.00000000000E+00 -0.40364229173E+03  0.40364229173E+03  0.00000000000E+00 0. -1.
      99926    2    1    2    0    0  0.00000000000E+00  0.00000000000E+00 -0.27821488473E+03  0.52906969874E+03  0.45001247099E+03 0.  0.
      99925    2    3    3    0    0  0.80752153181E+02  0.58759073120E+02 -0.22537181671E+03  0.36050684146E+03  0.26305738548E+03 0.  0.
         25    1    4    4    0    0  0.75052497572E+02  0.51880060156E+02 -0.10830553635E+03  0.18894976935E+03  0.12509000000E+03 0.  0.
         25    1    4    4    0    0  0.56996556088E+01  0.68790129642E+01 -0.11706628036E+03  0.17155707211E+03  0.12509000000E+03 0.  0.
         25    1    3    3    0    0 -0.80752153181E+02 -0.58759073120E+02 -0.52843068017E+02  0.16856285728E+03  0.12509000000E+03 0.  0.
<mgrwt>
<rscale>  2 0.45001247E+03</rscale>
<asrwt>0</asrwt>
<pdfrwt beam="1">  1       21 0.18445207E-01 0.45001247E+03</pdfrwt>
<pdfrwt beam="2">  1       21 0.59359161E-01 0.45001247E+03</pdfrwt>
<totfact> 0.65832057E+04</totfact>
</mgrwt>
</event>
<event>
 7    0  0.4709932E-002  0.4558579E+03  0.7546771E-02  0.1025989E+00
         21   -1    0    0  502  501  0.00000000000E+00  0.00000000000E+00  0.91398542215E+02  0.91398542215E+02  0.00000000000E+00 0.  1.
         21   -1    0    0  501  502 -0.00000000000E+00 -0.00000000000E+00 -0.56840731612E+03  0.56840731612E+03  0.00000000000E+00 0.  1.
      99926    2    1    2    0    0  0.00000000000E+00  0.14210854715E-13 -0.47700877390E+03  0.65980585833E+03  0.45585787293E+03 0.  0.
      99925    2    3    3    0    0  0.51052586948E+02  0.97919366012E+02 -0.25936842294E+03  0.38556253691E+03  0.26304357468E+03 0.  0.
         25    1    3    3    0    0 -0.51052586948E+02 -0.97919366012E+02 -0.21764035097E+03  0.27424332142E+03  0.12509000000E+03 0.  0.
         25    1    4    4    0    0  0.32143358278E+02  0.42609980590E+02 -0.18228537737E+03  0.22742970965E+03  0.12509000000E+03 0.  0.
         25    1    4    4    0    0  0.18909228671E+02  0.55309385423E+02 -0.77083045563E+02  0.15813282726E+03  0.12509000000E+03 0.  0.
<mgrwt>
<rscale>  2 0.45585787E+03</rscale>
<asrwt>0</asrwt>
<pdfrwt beam="1">  1       21 0.13440962E-01 0.45585787E+03</pdfrwt>
<pdfrwt beam="2">  1       21 0.83589310E-01 0.45585787E+03</pdfrwt>
<totfact> 0.54768240E+04</totfact>
</mgrwt>
</event>
<event>
 7    0  0.4709932E-002  0.4590832E+03  0.7546771E-02  0.1025047E+00
         21   -1    0    0  502  501  0.00000000000E+00  0.00000000000E+00  0.45373036809E+02  0.45373036809E+02  0.00000000000E+00 0. -1.
         21   -1    0    0  501  502 -0.00000000000E+00 -0.00000000000E+00 -0.11612477047E+04  0.11612477047E+04  0.00000000000E+00 0. -1.
      99926    2    1    2    0    0 -0.14210854715E-13  0.00000000000E+00 -0.11158746679E+04  0.12066207415E+04  0.45908315085E+03 0.  0.
      99925    2    3    3    0    0  0.79364151869E+02 -0.44814603831E+01 -0.47413995550E+03  0.54799360778E+03  0.26300103552E+03 0.  0.
         25    1    3    3    0    0 -0.79364151869E+02  0.44814603831E+01 -0.64173471238E+03  0.65862713371E+03  0.12509000000E+03 0.  0.
         25    1    4    4    0    0  0.71409494150E+01 -0.47366513065E+01 -0.16939598216E+03  0.21075088587E+03  0.12509000000E+03 0.  0.
         25    1    4    4    0    0  0.72223202454E+02  0.25519092345E+00 -0.30474397334E+03  0.33724272191E+03  0.12509000000E+03 0.  0.
<mgrwt>
<rscale>  2 0.45908315E+03</rscale>
<asrwt>0</asrwt>
<pdfrwt beam="1">  1       21 0.66725054E-02 0.45908315E+03</pdfrwt>
<pdfrwt beam="2">  1       21 0.17077172E+00 0.45908315E+03</pdfrwt>
<totfact> 0.30950629E+04</totfact>
</mgrwt>
</event>
<event>
 7    0  0.4709932E-002  0.4549670E+03  0.7546771E-02  0.1026251E+00
         21   -1    0    0  502  501  0.00000000000E+00  0.00000000000E+00  0.52634149388E+03  0.52634149388E+03  0.00000000000E+00 0.  1.
         21   -1    0    0  501  502 -0.00000000000E+00 -0.00000000000E+00 -0.98317801172E+02  0.98317801172E+02  0.00000000000E+00 0.  1.
      99926    2    1    2    0    0  0.00000000000E+00  0.00000000000E+00  0.42802369271E+03  0.62465929505E+03  0.45496698053E+03 0.  0.
      99925    2    3    3    0    0  0.20976665767E+02 -0.11097130721E+03  0.25866626609E+03  0.38573650923E+03  0.26292539971E+03 0.  0.
         25    1    4    4    0    0  0.71045443156E+01 -0.76131216861E+02  0.18414676739E+03  0.23538049361E+03  0.12509000000E+03 0.  0.
         25    1    4    4    0    0  0.13872121451E+02 -0.34840090353E+02  0.74519498694E+02  0.15035601563E+03  0.12509000000E+03 0.  0.
         25    1    3    3    0    0 -0.20976665767E+02  0.11097130721E+03  0.16935742662E+03  0.23892278582E+03  0.12509000000E+03 0.  0.
<mgrwt>
<rscale>  2 0.45496698E+03</rscale>
<asrwt>0</asrwt>
<pdfrwt beam="1">  1       21 0.77403159E-01 0.45496698E+03</pdfrwt>
<pdfrwt beam="2">  1       21 0.14458501E-01 0.45496698E+03</pdfrwt>
<totfact> 0.57200439E+04</totfact>
</mgrwt>
</event>
<event>
 7    0  0.4709932E-002  0.4602878E+03  0.7546771E-02  0.1024698E+00
         21   -1    0    0  502  501  0.00000000000E+00  0.00000000000E+00  0.46847328341E+03  0.46847328341E+03  0.00000000000E+00 0.  1.
         21   -1    0    0  501  502 -0.00000000000E+00 -0.00000000000E+00 -0.11306131761E+03  0.11306131761E+03  0.00000000000E+00 0.  1.
      99926    2    1    2    0    0  0.35527136788E-14 -0.11102230246E-15  0.35541196580E+03  0.58153460103E+03  0.46028776516E+03 0.  0.
      99925    2    3    3    0    0 -0.28826639939E+02  0.81392090869E+00  0.77946589291E+02  0.27581220914E+03  0.26299252136E+03 0.  0.
         25    1    4    4    0    0  0.24081752792E+02  0.52506078463E+01  0.50758339480E+02  0.13722760957E+03  0.12509000000E+03 0.  0.
         25    1    4    4    0    0 -0.52908392732E+02 -0.44366869376E+01  0.27188249812E+02  0.13858459958E+03  0.12509000000E+03 0.  0.
         25    1    3    3    0    0  0.28826639939E+02 -0.81392090869E+00  0.27746537651E+03  0.30572239188E+03  0.12509000000E+03 0.  0.
<mgrwt>
<rscale>  2 0.46028777E+03</rscale>
<asrwt>0</asrwt>
<pdfrwt beam="1">  1       21 0.68893129E-01 0.46028777E+03</pdfrwt>
<pdfrwt beam="2">  1       21 0.16626665E-01 0.46028777E+03</pdfrwt>
<totfact> 0.57392461E+04</totfact>
</mgrwt>
</event>
<event>
 7    0  0.4709932E-002  0.4606846E+03  0.7546771E-02  0.1024583E+00
         21   -1    0    0  502  501  0.00000000000E+00  0.00000000000E+00  0.31494226271E+03  0.31494226271E+03  0.00000000000E+00 0.  1.
         21   -1    0    0  501  502 -0.00000000000E+00 -0.00000000000E+00 -0.16846765873E+03  0.16846765873E+03  0.00000000000E+00 0.  1.
      99926    2    1    2    0    0  0.00000000000E+00  0.00000000000E+00  0.14647460398E+03  0.48340992144E+03  0.46068464543E+03 0.  0.
      99925    2    3    3    0    0 -0.26835351858E+02  0.84634299821E+02  0.94581701110E+01  0.27773028690E+03  0.26298584461E+03 0.  0.
         25    1    4    4    0    0  0.20873507663E+02  0.22713220640E+02 -0.85965105078E+01  0.12912397844E+03  0.12509000000E+03 0.  0.
         25    1    3    3    0    0  0.26835351858E+02 -0.84634299821E+02  0.13701643387E+03  0.20567963454E+03  0.12509000000E+03 0.  0.
         25    1    4    4    0    0 -0.47708859520E+02  0.61921079180E+02  0.18054680619E+02  0.14860630847E+03  0.12509000000E+03 0.  0.
<mgrwt>
<rscale>  2 0.46068465E+03</rscale>
<asrwt>0</asrwt>
<pdfrwt beam="1">  1       21 0.46315039E-01 0.46068465E+03</pdfrwt>
<pdfrwt beam="2">  1       21 0.24774656E-01 0.46068465E+03</pdfrwt>
<totfact> 0.63537053E+04</totfact>
</mgrwt>
</event>
<event>
 7    0  0.4709932E-002  0.4492938E+03  0.7546771E-02  0.1027933E+00
         21   -1    0    0  502  501  0.00000000000E+00  0.00000000000E+00  0.41712544665E+02  0.41712544665E+02  0.00000000000E+00 0. -1.
         21   -1    0    0  501  502 -0.00000000000E+00 -0.00000000000E+00 -0.12098571477E+04  0.12098571477E+04  0.00000000000E+00 0. -1.
      99926    2    1    2    0    0  0.00000000000E+00  0.00000000000E+00 -0.11681446030E+04  0.12515696923E+04  0.44929375829E+03 0.  0.
      99925    2    3    3    0    0 -0.53190606799E+02 -0.82320283385E+02 -0.61405842999E+03  0.67514548662E+03  0.26295969834E+03 0.  0.
         25    1    4    4    0    0  0.99078225827E+01 -0.55526642567E+02 -0.32609971760E+03  0.35379359364E+03  0.12509000000E+03 0.  0.
         25    1    4    4    0    0 -0.63098429382E+02 -0.26793640818E+02 -0.28795871239E+03  0.32135189298E+03  0.12509000000E+03 0.  0.
         25    1    3    3    0    0  0.53190606799E+02  0.82320283385E+02 -0.55408617301E+03  0.57642420571E+03  0.12509000000E+03 0.  0.
<mgrwt>
<rscale>  2 0.44929376E+03</rscale>
<asrwt>0</asrwt>
<pdfrwt beam="1">  1       21 0.61341982E-02 0.44929376E+03</pdfrwt>
<pdfrwt beam="2">  1       21 0.17792016E+00 0.44929376E+03</pdfrwt>
<totfact> 0.31950025E+04</totfact>
</mgrwt>
</event>
<event>
 7    0  0.4709932E-002  0.4502083E+03  0.7546771E-02  0.1027660E+00
         21   -1    0    0  502  501  0.00000000000E+00  0.00000000000E+00  0.96900017091E+02  0.96900017091E+02  0.00000000000E+00 0.  1.
         21   -1    0    0  501  502 -0.00000000000E+00 -0.00000000000E+00 -0.52292953473E+03  0.52292953473E+03  0.00000000000E+00 0.  1.
      99926    2    1    2    0    0  0.00000000000E+00  0.00000000000E+00 -0.42602951764E+03  0.61982955182E+03  0.45020831113E+03 0.  0.
      99925    2    3    3    0    0  0.98859940626E+02  0.42357474437E+02 -0.25011700753E+03  0.37866536955E+03  0.26317579892E+03 0.  0.
         25    1    4    4    0    0  0.71796264686E+02  0.33294057208E+02 -0.17791617560E+03  0.23144085963E+03  0.12509000000E+03 0.  0.
         25    1    3    3    0    0 -0.98859940626E+02 -0.42357474437E+02 -0.17591251011E+03  0.24116418228E+03  0.12509000000E+03 0.  0.
         25    1    4    4    0    0  0.27063675940E+02  0.90634172284E+01 -0.72200831937E+02  0.14722450991E+03  0.12509000000E+03 0.  0.
<mgrwt>
<rscale>  2 0.45020831E+03</rscale>
<asrwt>0</asrwt>
<pdfrwt beam="1">  1       21 0.14250002E-01 0.45020831E+03</pdfrwt>
<pdfrwt beam="2">  1       21 0.76901402E-01 0.45020831E+03</pdfrwt>
<totfact> 0.59701042E+04</totfact>
</mgrwt>
</event>
<event>
 7    0  0.4709932E-002  0.4591963E+03  0.7546771E-02  0.1025015E+00
         21   -1    0    0  502  501  0.00000000000E+00  0.00000000000E+00  0.24978503691E+03  0.24978503691E+03  0.00000000000E+00 0.  1.
         21   -1    0    0  501  502 -0.00000000000E+00 -0.00000000000E+00 -0.21104274746E+03  0.21104274746E+03  0.00000000000E+00 0.  1.
      99926    2    1    2    0    0  0.00000000000E+00  0.00000000000E+00  0.38742289455E+02  0.46082778437E+03  0.45919634347E+03 0.  0.
      99925    2    3    3    0    0 -0.93946694964E+02 -0.60335965171E+02  0.59588708255E+02  0.29186479593E+03  0.26299778471E+03 0.  0.
         25    1    4    4    0    0 -0.12156863285E+02 -0.33510797507E+02  0.38935571980E+01  0.13012851633E+03  0.12509000000E+03 0.  0.
         25    1    4    4    0    0 -0.81789831679E+02 -0.26825167663E+02  0.55695151057E+02  0.16173627960E+03  0.12509000000E+03 0.  0.
         25    1    3    3    0    0  0.93946694964E+02  0.60335965171E+02 -0.20846418800E+02  0.16896298845E+03  0.12509000000E+03 0.  0.
<mgrwt>
<rscale>  2 0.45919634E+03</rscale>
<asrwt>0</asrwt>
<pdfrwt beam="1">  1       21 0.36733094E-01 0.45919634E+03</pdfrwt>
<pdfrwt beam="2">  1       21 0.31035698E-01 0.45919634E+03</pdfrwt>
<totfact> 0.65887198E+04</totfact>
</mgrwt>
</event>
<event>
 7    0  0.4709932E-002  0.4570614E+03  0.7546771E-02  0.1025637E+00
         21   -1    0    0  502  501  0.00000000000E+00  0.00000000000E+00  0.54069933422E+03  0.54069933422E+03  0.00000000000E+00 0. -1.
         21   -1    0    0  501  502 -0.00000000000E+00 -0.00000000000E+00 -0.96590241094E+02  0.96590241094E+02  0.00000000000E+00 0. -1.
      99926    2    1    2    0    0 -0.71054273576E-14  0.14210854715E-13  0.44410909313E+03  0.63728957531E+03  0.45706139217E+03 0.  0.
      99925    2    3    3    0    0 -0.58498727624E+02  0.92083248913E+02  0.32989970284E+03  0.43581322734E+03  0.26305499297E+03 0.  0.
         25    1    4    4    0    0 -0.70351702398E+02  0.43360500321E+02  0.16825501930E+03  0.22535916808E+03  0.12509000000E+03 0.  0.
         25    1    3    3    0    0  0.58498727624E+02 -0.92083248913E+02  0.11420939028E+03  0.20147634797E+03  0.12509000000E+03 0.  0.
         25    1    4    4    0    0  0.11852974773E+02  0.48722748592E+02  0.16164468355E+03  0.21045405926E+03  0.12509000000E+03 0.  0.
<mgrwt>
<rscale>  2 0.45706139E+03</rscale>
<asrwt>0</asrwt>
<pdfrwt beam="1">  1       21 0.79514606E-01 0.45706139E+03</pdfrwt>
<pdfrwt beam="2">  1       21 0.14204447E-01 0.45706139E+03</pdfrwt>
<totfact> 0.55530768E+04</totfact>
</mgrwt>
</event>
<event>
 7    0  0.4709932E-002  0.4587787E+03  0.7546771E-02  0.1025136E+00
         21   -1    0    0  502  501  0.00000000000E+00  0.00000000000E+00  0.10995331132E+04  0.10995331132E+04  0.00000000000E+00 0. -1.
         21   -1    0    0  501  502 -0.00000000000E+00 -0.00000000000E+00 -0.47856204522E+02  0.47856204522E+02  0.00000000000E+00 0. -1.
      99926    2    1    2    0    0  0.71054273576E-14 -0.33306690739E-15  0.10516769086E+04  0.11473893177E+04  0.45877873334E+03 0.  0.
      99925    2    3    3    0    0 -0.39103744431E+02  0.51423863518E+00  0.38463484508E+03  0.46759376759E+03  0.26300304213E+03 0.  0.
         25    1    3    3    0    0  0.39103744431E+02 -0.51423863518E+00  0.66704206357E+03  0.67979555011E+03  0.12509000000E+03 0.  0.
         25    1    4    4    0    0 -0.38477087222E+02  0.34553453255E+02  0.17726711495E+03  0.22303713932E+03  0.12509000000E+03 0.  0.
         25    1    4    4    0    0 -0.62665720816E+00 -0.34039214620E+02  0.20736773013E+03  0.24455662827E+03  0.12509000000E+03 0.  0.
<mgrwt>
<rscale>  2 0.45877873E+03</rscale>
<asrwt>0</asrwt>
<pdfrwt beam="1">  1       21 0.16169603E+00 0.45877873E+03</pdfrwt>
<pdfrwt beam="2">  1       21 0.70376779E-02 0.45877873E+03</pdfrwt>
<totfact> 0.32890272E+04</totfact>
</mgrwt>
</event>
<event>
 7    0  0.4709932E-002  0.4523897E+03  0.7546771E-02  0.1027012E+00
         21   -1    0    0  502  501  0.00000000000E+00  0.00000000000E+00  0.13328217513E+03  0.13328217513E+03  0.00000000000E+00 0. -1.
         21   -1    0    0  501  502 -0.00000000000E+00 -0.00000000000E+00 -0.38387811299E+03  0.38387811299E+03  0.00000000000E+00 0. -1.
      99926    2    1    2    0    0  0.00000000000E+00  0.00000000000E+00 -0.25059593786E+03  0.51716028812E+03  0.45238969876E+03 0.  0.
      99925    2    3    3    0    0  0.84129350473E+02  0.55451367500E+02 -0.10497791992E+03  0.30035457552E+03  0.26275445876E+03 0.  0.
         25    1    4    4    0    0  0.57151429934E+02  0.18773618079E+02 -0.14849834795E+02  0.13959498692E+03  0.12509000000E+03 0.  0.
         25    1    3    3    0    0 -0.84129350473E+02 -0.55451367500E+02 -0.14561801794E+03  0.21680571260E+03  0.12509000000E+03 0.  0.
         25    1    4    4    0    0  0.26977920539E+02  0.36677749421E+02 -0.90128085122E+02  0.16075958860E+03  0.12509000000E+03 0.  0.
<mgrwt>
<rscale>  2 0.45238970E+03</rscale>
<asrwt>0</asrwt>
<pdfrwt beam="1">  1       21 0.19600320E-01 0.45238970E+03</pdfrwt>
<pdfrwt beam="2">  1       21 0.56452663E-01 0.45238970E+03</pdfrwt>
<totfact> 0.65425688E+04</totfact>
</mgrwt>
</event>
<event>
 7    0  0.4709932E-002  0.4574589E+03  0.7546771E-02  0.1025521E+00
         21   -1    0    0  502  501  0.00000000000E+00  0.00000000000E+00  0.14616983665E+03  0.14616983665E+03  0.00000000000E+00 0. -1.
         21   -1    0    0  501  502 -0.00000000000E+00 -0.00000000000E+00 -0.35792032872E+03  0.35792032872E+03  0.00000000000E+00 0. -1.
      99926    2    1    2    0    0 -0.71054273576E-14 -0.35527136788E-14 -0.21175049207E+03  0.50409016538E+03  0.45745887677E+03 0.  0.
      99925    2    3    3    0    0 -0.56747613854E+02  0.17567179304E+02 -0.24740178417E+02  0.27139022344E+03  0.26365067700E+03 0.  0.
         25    1    4    4    0    0  0.10489870623E+02 -0.16370822702E+01  0.22638927050E+01  0.12556014787E+03  0.12509000000E+03 0.  0.
         25    1    3    3    0    0  0.56747613854E+02 -0.17567179304E+02 -0.18701031365E+03  0.23269994194E+03  0.12509000000E+03 0.  0.
         25    1    4    4    0    0 -0.67237484476E+02  0.19204261574E+02 -0.27004071122E+02  0.14583007556E+03  0.12509000000E+03 0.  0.
<mgrwt>
<rscale>  2 0.45745888E+03</rscale>
<asrwt>0</asrwt>
<pdfrwt beam="1">  1       21 0.21495564E-01 0.45745888E+03</pdfrwt>
<pdfrwt beam="2">  1       21 0.52635342E-01 0.45745888E+03</pdfrwt>
<totfact> 0.63731257E+04</totfact>
</mgrwt>
</event>
<event>
 7    0  0.4709932E-002  0.4560919E+03  0.7546771E-02  0.1025921E+00
         21   -1    0    0  502  501  0.00000000000E+00  0.00000000000E+00  0.13556318233E+03  0.13556318233E+03  0.00000000000E+00 0. -1.
         21   -1    0    0  501  502 -0.00000000000E+00 -0.00000000000E+00 -0.38362160497E+03  0.38362160497E+03  0.00000000000E+00 0. -1.
      99926    2    1    2    0    0  0.00000000000E+00  0.00000000000E+00 -0.24805842263E+03  0.51918478730E+03  0.45609194504E+03 0.  0.
      99925    2    3    3    0    0 -0.37723310542E+02  0.93967877064E+02 -0.95613728479E+02  0.29750956777E+03  0.26290102275E+03 0.  0.
         25    1    3    3    0    0  0.37723310542E+02 -0.93967877064E+02 -0.15244469416E+03  0.22167521953E+03  0.12509000000E+03 0.  0.
         25    1    4    4    0    0  0.16523127342E+01  0.30214450788E+02 -0.11594548389E+02  0.12921913491E+03  0.12509000000E+03 0.  0.
         25    1    4    4    0    0 -0.39375623277E+02  0.63753426276E+02 -0.84019180090E+02  0.16829043286E+03  0.12509000000E+03 0.  0.
<mgrwt>
<rscale>  2 0.45609195E+03</rscale>
<asrwt>0</asrwt>
<pdfrwt beam="1">  1       21 0.19935762E-01 0.45609195E+03</pdfrwt>
<pdfrwt beam="2">  1       21 0.56414942E-01 0.45609195E+03</pdfrwt>
<totfact> 0.63391858E+04</totfact>
</mgrwt>
</event>
<event>
 7    0  0.4709932E-002  0.4485681E+03  0.7546771E-02  0.1028150E+00
         21   -1    0    0  502  501  0.00000000000E+00  0.00000000000E+00  0.22264970995E+04  0.22264970995E+04  0.00000000000E+00 0.  1.
         21   -1    0    0  501  502 -0.00000000000E+00 -0.00000000000E+00 -0.22593034210E+02  0.22593034210E+02  0.00000000000E+00 0.  1.
      99926    2    1    2    0    0  0.00000000000E+00  0.00000000000E+00  0.22039040653E+04  0.22490901337E+04  0.44856805564E+03 0.  0.
      99925    2    3    3    0    0  0.97349108175E+02  0.19108480303E+02  0.11957039857E+04  0.12283272369E+04  0.26313075960E+03 0.  0.
         25    1    4    4    0    0  0.69493659426E+02 -0.15247685563E+02  0.51049548623E+03  0.53039137453E+03  0.12509000000E+03 0.  0.
         25    1    3    3    0    0 -0.97349108175E+02 -0.19108480303E+02  0.10082000796E+04  0.10207628968E+04  0.12509000000E+03 0.  0.
         25    1    4    4    0    0  0.27855448749E+02  0.34356165866E+02  0.68520849942E+03  0.69793586234E+03  0.12509000000E+03 0.  0.
<mgrwt>
<rscale>  2 0.44856806E+03</rscale>
<asrwt>0</asrwt>
<pdfrwt beam="1">  1       21 0.32742589E+00 0.44856806E+03</pdfrwt>
<pdfrwt beam="2">  1       21 0.33225066E-02 0.44856806E+03</pdfrwt>
<totfact> 0.10570933E+04</totfact>
</mgrwt>
</event>
<event>
 7    0  0.4709932E-002  0.4445692E+03  0.7546771E-02  0.1029354E+00
         21   -1    0    0  502  501  0.00000000000E+00  0.00000000000E+00  0.11011855308E+03  0.11011855308E+03  0.00000000000E+00 0.  1.
         21   -1    0    0  501  502 -0.00000000000E+00 -0.00000000000E+00 -0.44870232991E+03  0.44870232991E+03  0.00000000000E+00 0.  1.
      99926    2    1    2    0    0  0.00000000000E+00  0.00000000000E+00 -0.33858377683E+03  0.55882088299E+03  0.44456923571E+03 0.  0.
      99925    2    3    3    0    0  0.40195920196E+02 -0.93330969273E+02 -0.23699671320E+03  0.36831150941E+03  0.26298202233E+03 0.  0.
         25    1    4    4    0    0  0.13359171938E+02 -0.32237257984E+02 -0.16293349784E+03  0.20835676398E+03  0.12509000000E+03 0.  0.
         25    1    3    3    0    0 -0.40195920196E+02  0.93330969273E+02 -0.10158706363E+03  0.19050937358E+03  0.12509000000E+03 0.  0.
         25    1    4    4    0    0  0.26836748258E+02 -0.61093711290E+02 -0.74063215359E+02  0.15995474543E+03  0.12509000000E+03 0.  0.
<mgrwt>
<rscale>  2 0.44456924E+03</rscale>
<asrwt>0</asrwt>
<pdfrwt beam="1">  1       21 0.16193905E-01 0.44456924E+03</pdfrwt>
<pdfrwt beam="2">  1       21 0.65985636E-01 0.44456924E+03</pdfrwt>
<totfact> 0.66615843E+04</totfact>
</mgrwt>
</event>
<event>
 7    0  0.4709932E-002  0.4532752E+03  0.7546771E-02  0.1026750E+00
         21   -1    0    0  502  501  0.00000000000E+00  0.00000000000E+00  0.70727860115E+02  0.70727860115E+02  0.00000000000E+00 0.  1.
         21   -1    0    0  501  502 -0.00000000000E+00 -0.00000000000E+00 -0.72622878550E+03  0.72622878550E+03  0.00000000000E+00 0.  1.
      99926    2    1    2    0    0  0.00000000000E+00  0.00000000000E+00 -0.65550092539E+03  0.79695664561E+03  0.45327522744E+03 0.  0.
      99925    2    3    3    0    0  0.39064842411E+02 -0.90824681129E+02 -0.32236739428E+03  0.42763206986E+03  0.26300810949E+03 0.  0.
         25    1    4    4    0    0  0.48581889408E+02 -0.41282165032E+02 -0.12144933752E+03  0.18563907674E+03  0.12509000000E+03 0.  0.
         25    1    4    4    0    0 -0.95170469965E+01 -0.49542516097E+02 -0.20091805676E+03  0.24199299312E+03  0.12509000000E+03 0.  0.
         25    1    3    3    0    0 -0.39064842411E+02  0.90824681129E+02 -0.33313353110E+03  0.36932457576E+03  0.12509000000E+03 0.  0.
<mgrwt>
<rscale>  2 0.45327523E+03</rscale>
<asrwt>0</asrwt>
<pdfrwt beam="1">  1       21 0.10401156E-01 0.45327523E+03</pdfrwt>
<pdfrwt beam="2">  1       21 0.10679835E+00 0.45327523E+03</pdfrwt>
<totfact> 0.48566435E+04</totfact>
</mgrwt>
</event>
<event>
 7    0  0.4709932E-002  0.4470313E+03  0.7546771E-02  0.1028611E+00
         21   -1    0    0  502  501  0.00000000000E+00  0.00000000000E+00  0.20334945312E+03  0.20334945312E+03  0.00000000000E+00 0.  1.
         21   -1    0    0  501  502 -0.00000000000E+00 -0.00000000000E+00 -0.24568174007E+03  0.24568174007E+03  0.00000000000E+00 0.  1.
      99926    2    1    2    0    0  0.00000000000E+00  0.00000000000E+00 -0.42332286957E+02  0.44903119319E+03  0.44703130756E+03 0.  0.
      99925    2    3    3    0    0 -0.46435435391E+02 -0.66295996311E+01  0.68094934617E+02  0.27570525567E+03  0.26301381453E+03 0.  0.
         25    1    3    3    0    0  0.46435435391E+02  0.66295996311E+01 -0.11042722157E+03  0.17332593752E+03  0.12509000000E+03 0.  0.
         25    1    4    4    0    0  0.15041026660E+02  0.99692332929E-01  0.17145893024E+02  0.12715239742E+03  0.12509000000E+03 0.  0.
         25    1    4    4    0    0 -0.61476462051E+02 -0.67292919640E+01  0.50949041593E+02  0.14855285826E+03  0.12509000000E+03 0.  0.
<mgrwt>
<rscale>  2 0.44703131E+03</rscale>
<asrwt>0</asrwt>
<pdfrwt beam="1">  1       21 0.29904331E-01 0.44703131E+03</pdfrwt>
<pdfrwt beam="2">  1       21 0.36129668E-01 0.44703131E+03</pdfrwt>
<totfact> 0.73551569E+04</totfact>
</mgrwt>
</event>
<event>
 7    0  0.4709932E-002  0.4575719E+03  0.7546771E-02  0.1025488E+00
         21   -1    0    0  502  501  0.00000000000E+00  0.00000000000E+00  0.77737428802E+03  0.77737428802E+03  0.00000000000E+00 0.  1.
         21   -1    0    0  501  502 -0.00000000000E+00 -0.00000000000E+00 -0.67333077352E+02  0.67333077352E+02  0.00000000000E+00 0.  1.
      99926    2    1    2    0    0  0.14210854715E-13 -0.71054273576E-14  0.71004121067E+03  0.84470736537E+03  0.45757186569E+03 0.  0.
      99925    2    3    3    0    0  0.93754295672E+02 -0.63256740439E+02  0.48975008643E+03  0.56727814794E+03  0.26297921363E+03 0.  0.
         25    1    3    3    0    0 -0.93754295672E+02  0.63256740439E+02  0.22029112424E+03  0.27742921743E+03  0.12509000000E+03 0.  0.
         25    1    4    4    0    0  0.69123275356E+02 -0.68872200703E+02  0.26970695966E+03  0.31290695009E+03  0.12509000000E+03 0.  0.
         25    1    4    4    0    0  0.24631020317E+02  0.56154602640E+01  0.22004312677E+03  0.25437119785E+03  0.12509000000E+03 0.  0.
<mgrwt>
<rscale>  2 0.45757187E+03</rscale>
<asrwt>0</asrwt>
<pdfrwt beam="1">  1       21 0.11431974E+00 0.45757187E+03</pdfrwt>
<pdfrwt beam="2">  1       21 0.99019236E-02 0.45757187E+03</pdfrwt>
<totfact> 0.44766978E+04</totfact>
</mgrwt>
</event>
<event>
 7    0  0.4709932E-002  0.4625617E+03  0.7546771E-02  0.1024041E+00
         21   -1    0    0  502  501  0.00000000000E+00  0.00000000000E+00  0.14870603199E+03  0.14870603199E+03  0.00000000000E+00 0. -1.
         21   -1    0    0  501  502 -0.00000000000E+00 -0.00000000000E+00 -0.35970860061E+03  0.35970860061E+03  0.00000000000E+00 0. -1.
      99926    2    1    2    0    0  0.00000000000E+00  0.00000000000E+00 -0.21100256862E+03  0.50841463260E+03  0.46256173067E+03 0.  0.
      99925    2    3    3    0    0  0.26045668327E+02 -0.10684631369E+03 -0.78976932630E+02  0.29587572265E+03  0.26307902953E+03 0.  0.
         25    1    4    4    0    0  0.27906585620E+02 -0.14918105129E+02 -0.24418481604E+02  0.13132059140E+03  0.12509000000E+03 0.  0.
         25    1    4    4    0    0 -0.18609172929E+01 -0.91928208561E+02 -0.54558451026E+02  0.16455513125E+03  0.12509000000E+03 0.  0.
         25    1    3    3    0    0 -0.26045668327E+02  0.10684631369E+03 -0.13202563599E+03  0.21253890996E+03  0.12509000000E+03 0.  0.
<mgrwt>
<rscale>  2 0.46256173E+03</rscale>
<asrwt>0</asrwt>
<pdfrwt beam="1">  1       21 0.21868535E-01 0.46256173E+03</pdfrwt>
<pdfrwt beam="2">  1       21 0.52898322E-01 0.46256173E+03</pdfrwt>
<totfact> 0.60942673E+04</totfact>
</mgrwt>
</event>
<event>
 7    0  0.4709932E-002  0.4508975E+03  0.7546771E-02  0.1027455E+00
         21   -1    0    0  502  501  0.00000000000E+00  0.00000000000E+00  0.49829961591E+02  0.49829961591E+02  0.00000000000E+00 0.  1.
         21   -1    0    0  501  502 -0.00000000000E+00 -0.00000000000E+00 -0.10200115514E+04  0.10200115514E+04  0.00000000000E+00 0.  1.
      99926    2    1    2    0    0  0.00000000000E+00  0.35527136788E-14 -0.97018158978E+03  0.10698415130E+04  0.45089748913E+03 0.  0.
      99925    2    3    3    0    0 -0.29622632492E+02 -0.29680248004E+02 -0.37314947964E+03  0.45840609845E+03  0.26293953576E+03 0.  0.
         25    1    3    3    0    0  0.29622632492E+02  0.29680248004E+02 -0.59703211014E+03  0.61143541451E+03  0.12509000000E+03 0.  0.
         25    1    4    4    0    0 -0.15692930637E+02 -0.50156921904E+02 -0.22687730169E+03  0.26435355683E+03  0.12509000000E+03 0.  0.
         25    1    4    4    0    0 -0.13929701855E+02  0.20476673900E+02 -0.14627217795E+03  0.19405254162E+03  0.12509000000E+03 0.  0.
<mgrwt>
<rscale>  2 0.45089749E+03</rscale>
<asrwt>0</asrwt>
<pdfrwt beam="1">  1       21 0.73279359E-02 0.45089749E+03</pdfrwt>
<pdfrwt beam="2">  1       21 0.15000169E+00 0.45089749E+03</pdfrwt>
<totfact> 0.37751864E+04</totfact>
</mgrwt>
</event>
<event>
 7    0  0.4709932E-002  0.4599237E+03  0.7546771E-02  0.1024803E+00
         21   -1    0    0  502  501  0.00000000000E+00  0.00000000000E+00  0.40851966830E+03  0.40851966830E+03  0.00000000000E+00 0.  1.
         21   -1    0    0  501  502 -0.00000000000E+00 -0.00000000000E+00 -0.12944896204E+03  0.12944896204E+03  0.00000000000E+00 0.  1.
      99926    2    1    2    0    0  0.44408920985E-14  0.00000000000E+00  0.27907070626E+03  0.53796863034E+03  0.45992367643E+03 0.  0.
      99925    2    3    3    0    0 -0.11335234923E+01  0.11433916565E+03  0.14238110867E+03  0.32023878887E+03  0.26306989967E+03 0.  0.
         25    1    4    4    0    0  0.38930969384E+02  0.58040301968E+02  0.82059913701E+02  0.16512308914E+03  0.12509000000E+03 0.  0.
         25    1    3    3    0    0  0.11335234923E+01 -0.11433916565E+03  0.13668959759E+03  0.21772984147E+03  0.12509000000E+03 0.  0.
         25    1    4    4    0    0 -0.40064492876E+02  0.56298863684E+02  0.60321194968E+02  0.15511569973E+03  0.12509000000E+03 0.  0.
<mgrwt>
<rscale>  2 0.45992368E+03</rscale>
<asrwt>0</asrwt>
<pdfrwt beam="1">  1       21 0.60076421E-01 0.45992368E+03</pdfrwt>
<pdfrwt beam="2">  1       21 0.19036612E-01 0.45992368E+03</pdfrwt>
<totfact> 0.60283412E+04</totfact>
</mgrwt>
</event>
<event>
 7    0  0.4709932E-002  0.4529460E+03  0.7546771E-02  0.1026847E+00
         21   -1    0    0  502  501  0.00000000000E+00  0.00000000000E+00  0.68199349155E+02  0.68199349155E+02  0.00000000000E+00 0.  1.
         21   -1    0    0  501  502 -0.00000000000E+00 -0.00000000000E+00 -0.75206029187E+03  0.75206029187E+03  0.00000000000E+00 0.  1.
      99926    2    1    2    0    0  0.00000000000E+00  0.00000000000E+00 -0.68386094271E+03  0.82025964102E+03  0.45294601193E+03 0.  0.
      99925    2    3    3    0    0 -0.67556260438E+02 -0.13293623920E+02 -0.27225368178E+03  0.38458933665E+03  0.26276666809E+03 0.  0.
         25    1    4    4    0    0 -0.13369943194E+02 -0.11209888413E+02 -0.82212087923E+02  0.15070087087E+03  0.12509000000E+03 0.  0.
         25    1    4    4    0    0 -0.54186317244E+02 -0.20837355077E+01 -0.19004159386E+03  0.23388846579E+03  0.12509000000E+03 0.  0.
         25    1    3    3    0    0  0.67556260438E+02  0.13293623920E+02 -0.41160726093E+03  0.43567030437E+03  0.12509000000E+03 0.  0.
<mgrwt>
<rscale>  2 0.45294601E+03</rscale>
<asrwt>0</asrwt>
<pdfrwt beam="1">  1       21 0.10029316E-01 0.45294601E+03</pdfrwt>
<pdfrwt beam="2">  1       21 0.11059710E+00 0.45294601E+03</pdfrwt>
<totfact> 0.47562382E+04</totfact>
</mgrwt>
</event>
<event>
 7    0  0.4709932E-002  0.4573713E+03  0.7546771E-02  0.1025546E+00
         21   -1    0    0  502  501  0.00000000000E+00  0.00000000000E+00  0.17758981990E+03  0.17758981990E+03  0.00000000000E+00 0. -1.
         21   -1    0    0  501  502 -0.00000000000E+00 -0.00000000000E+00 -0.29448269276E+03  0.29448269276E+03  0.00000000000E+00 0. -1.
      99926    2    1    2    0    0  0.00000000000E+00  0.71054273576E-14 -0.11689287286E+03  0.47207251266E+03  0.45737130811E+03 0.  0.
      99925    2    3    3    0    0 -0.15460261986E+02  0.36999580233E+02  0.38246014552E+02  0.26879051363E+03  0.26301633781E+03 0.  0.
         25    1    4    4    0    0  0.18371433275E+02 -0.13100171538E+02  0.19696307075E+02  0.12862572319E+03  0.12509000000E+03 0.  0.
         25    1    3    3    0    0  0.15460261986E+02 -0.36999580233E+02 -0.15513888742E+03  0.20328199902E+03  0.12509000000E+03 0.  0.
         25    1    4    4    0    0 -0.33831695261E+02  0.50099751770E+02  0.18549707478E+02  0.14016479044E+03  0.12509000000E+03 0.  0.
<mgrwt>
<rscale>  2 0.45737131E+03</rscale>
<asrwt>0</asrwt>
<pdfrwt beam="1">  1       21 0.26116150E-01 0.45737131E+03</pdfrwt>
<pdfrwt beam="2">  1       21 0.43306278E-01 0.45737131E+03</pdfrwt>
<totfact> 0.66030946E+04</totfact>
</mgrwt>
</event>
<event>
 7    0  0.4709932E-002  0.4656646E+03  0.7546771E-02  0.1023151E+00
         21   -1    0    0  502  501  0.00000000000E+00  0.00000000000E+00  0.71249122701E+02  0.71249122701E+02  0.00000000000E+00 0.  1.
         21   -1    0    0  501  502 -0.00000000000E+00 -0.00000000000E+00 -0.76086375794E+03  0.76086375794E+03  0.00000000000E+00 0.  1.
      99926    2    1    2    0    0  0.44408920985E-15  0.35527136788E-14 -0.68961463524E+03  0.83211288064E+03  0.46566457992E+03 0.  0.
      99925    2    3    3    0    0  0.20563647277E+01  0.27188420953E+02 -0.21535050169E+03  0.34087219081E+03  0.26282041972E+03 0.  0.
         25    1    3    3    0    0 -0.20563647277E+01 -0.27188420953E+02 -0.47426413355E+03  0.49124068983E+03  0.12509000000E+03 0.  0.
         25    1    4    4    0    0  0.58306158202E+01  0.35670829853E+02 -0.15265388650E+03  0.20064177368E+03  0.12509000000E+03 0.  0.
         25    1    4    4    0    0 -0.37742510925E+01 -0.84824088998E+01 -0.62696615185E+02  0.14023041713E+03  0.12509000000E+03 0.  0.
<mgrwt>
<rscale>  2 0.46566458E+03</rscale>
<asrwt>0</asrwt>
<pdfrwt beam="1">  1       21 0.10477812E-01 0.46566458E+03</pdfrwt>
<pdfrwt beam="2">  1       21 0.11189174E+00 0.46566458E+03</pdfrwt>
<totfact> 0.42574644E+04</totfact>
</mgrwt>
</event>
<event>
 7    0  0.4709932E-002  0.4565192E+03  0.7546771E-02  0.1025796E+00
         21   -1    0    0  502  501  0.00000000000E+00  0.00000000000E+00  0.15148721624E+03  0.15148721624E+03  0.00000000000E+00 0.  1.
         21   -1    0    0  501  502 -0.00000000000E+00 -0.00000000000E+00 -0.34393955427E+03  0.34393955427E+03  0.00000000000E+00 0.  1.
      99926    2    1    2    0    0 -0.71054273576E-14 -0.14210854715E-13 -0.19245233803E+03  0.49542677051E+03  0.45651920280E+03 0.  0.
      99925    2    3    3    0    0 -0.51429857013E+02 -0.86895403449E+02 -0.17983774253E+03  0.33417393347E+03  0.26293490229E+03 0.  0.
         25    1    4    4    0    0  0.96208089727E+01 -0.53346997204E+02 -0.10833751896E+03  0.17413497119E+03  0.12509000000E+03 0.  0.
         25    1    4    4    0    0 -0.61050665985E+02 -0.33548406245E+02 -0.71500223565E+02  0.16003896228E+03  0.12509000000E+03 0.  0.
         25    1    3    3    0    0  0.51429857013E+02  0.86895403449E+02 -0.12614595505E+02  0.16125283704E+03  0.12509000000E+03 0.  0.
<mgrwt>
<rscale>  2 0.45651920E+03</rscale>
<asrwt>0</asrwt>
<pdfrwt beam="1">  1       21 0.22277532E-01 0.45651920E+03</pdfrwt>
<pdfrwt beam="2">  1       21 0.50579346E-01 0.45651920E+03</pdfrwt>
<totfact> 0.64808012E+04</totfact>
</mgrwt>
</event>
<event>
 7    0  0.4709932E-002  0.4537546E+03  0.7546771E-02  0.1026608E+00
         21   -1    0    0  502  501  0.00000000000E+00  0.00000000000E+00  0.90530385641E+03  0.90530385641E+03  0.00000000000E+00 0. -1.
         21   -1    0    0  501  502 -0.00000000000E+00 -0.00000000000E+00 -0.56857488817E+02  0.56857488817E+02  0.00000000000E+00 0. -1.
      99926    2    1    2    0    0  0.00000000000E+00  0.00000000000E+00  0.84844636759E+03  0.96216134523E+03  0.45375457636E+03 0.  0.
      99925    2    3    3    0    0  0.10446705724E+03 -0.23835855322E+02  0.46534874799E+03  0.54515677896E+03  0.26299228570E+03 0.  0.
         25    1    4    4    0    0  0.94289500116E+02 -0.23910895974E+02  0.25652159669E+03  0.30151795709E+03  0.12509000000E+03 0.  0.
         25    1    4    4    0    0  0.10177557123E+02  0.75040651613E-01  0.20882715131E+03  0.24363882187E+03  0.12509000000E+03 0.  0.
         25    1    3    3    0    0 -0.10446705724E+03  0.23835855322E+02  0.38309761960E+03  0.41700456627E+03  0.12509000000E+03 0.  0.
<mgrwt>
<rscale>  2 0.45375458E+03</rscale>
<asrwt>0</asrwt>
<pdfrwt beam="1">  1       21 0.13313291E+00 0.45375458E+03</pdfrwt>
<pdfrwt beam="2">  1       21 0.83613960E-02 0.45375458E+03</pdfrwt>
<totfact> 0.41050551E+04</totfact>
</mgrwt>
</event>
<event>
 7    0  0.4709932E-002  0.4551471E+03  0.7546771E-02  0.1026198E+00
         21   -1    0    0  502  501  0.00000000000E+00  0.00000000000E+00  0.93811691304E+02  0.93811691304E+02  0.00000000000E+00 0.  1.
         21   -1    0    0  501  502 -0.00000000000E+00 -0.00000000000E+00 -0.55206030211E+03  0.55206030211E+03  0.00000000000E+00 0.  1.
      99926    2    1    2    0    0  0.00000000000E+00  0.00000000000E+00 -0.45824861081E+03  0.64587199342E+03  0.45514705599E+03 0.  0.
      99925    2    3    3    0    0 -0.17070437370E+02  0.24653195535E+02 -0.13318257780E+03  0.29627992572E+03  0.26295439809E+03 0.  0.
         25    1    4    4    0    0  0.20773188061E+02  0.37643602739E+02 -0.53626801794E+02  0.14273019351E+03  0.12509000000E+03 0.  0.
         25    1    4    4    0    0 -0.37843625432E+02 -0.12990407203E+02 -0.79555776011E+02  0.15354973221E+03  0.12509000000E+03 0.  0.
         25    1    3    3    0    0  0.17070437370E+02 -0.24653195535E+02 -0.32506603300E+03  0.34959206769E+03  0.12509000000E+03 0.  0.
<mgrwt>
<rscale>  2 0.45514706E+03</rscale>
<asrwt>0</asrwt>
<pdfrwt beam="1">  1       21 0.13795837E-01 0.45514706E+03</pdfrwt>
<pdfrwt beam="2">  1       21 0.81185338E-01 0.45514706E+03</pdfrwt>
<totfact> 0.55875072E+04</totfact>
</mgrwt>
</event>
<event>
 7    0  0.4709932E-002  0.4484073E+03  0.7546771E-02  0.1028198E+00
         21   -1    0    0  502  501  0.00000000000E+00  0.00000000000E+00  0.91468120672E+02  0.91468120672E+02  0.00000000000E+00 0.  1.
         21   -1    0    0  501  502 -0.00000000000E+00 -0.00000000000E+00 -0.54956071440E+03  0.54956071440E+03  0.00000000000E+00 0.  1.
      99926    2    1    2    0    0  0.71054273576E-14  0.71054273576E-14 -0.45809259373E+03  0.64102883507E+03  0.44840734045E+03 0.  0.
      99925    2    3    3    0    0 -0.51335617008E+02 -0.60373834805E+02 -0.39254378878E+03  0.47908903319E+03  0.26297401034E+03 0.  0.
         25    1    3    3    0    0  0.51335617008E+02  0.60373834805E+02 -0.65548804952E+02  0.16193980188E+03  0.12509000000E+03 0.  0.
         25    1    4    4    0    0 -0.44869240257E+02  0.35342140290E+01 -0.21218031282E+03  0.25038716549E+03  0.12509000000E+03 0.  0.
         25    1    4    4    0    0 -0.64663767511E+01 -0.63908048834E+02 -0.18036347595E+03  0.22870186771E+03  0.12509000000E+03 0.  0.
<mgrwt>
<rscale>  2 0.44840734E+03</rscale>
<asrwt>0</asrwt>
<pdfrwt beam="1">  1       21 0.13451195E-01 0.44840734E+03</pdfrwt>
<pdfrwt beam="2">  1       21 0.80817749E-01 0.44840734E+03</pdfrwt>
<totfact> 0.59243623E+04</totfact>
</mgrwt>
</event>
<event>
 7    0  0.4709932E-002  0.4511876E+03  0.7546771E-02  0.1027368E+00
         21   -1    0    0  502  501  0.00000000000E+00  0.00000000000E+00  0.41187145648E+03  0.41187145648E+03  0.00000000000E+00 0. -1.
         21   -1    0    0  501  502 -0.00000000000E+00 -0.00000000000E+00 -0.12356417437E+03  0.12356417437E+03  0.00000000000E+00 0. -1.
      99926    2    1    2    0    0  0.00000000000E+00  0.00000000000E+00  0.28830728211E+03  0.53543563085E+03  0.45118757282E+03 0.  0.
      99925    2    3    3    0    0 -0.93739717965E+02 -0.37478230557E+02  0.23261980221E+03  0.36531697812E+03  0.26296914197E+03 0.  0.
         25    1    3    3    0    0  0.93739717965E+02  0.37478230557E+02  0.55687479895E+02  0.17011865273E+03  0.12509000000E+03 0.  0.
         25    1    4    4    0    0 -0.80586116604E+02  0.51058622635E+01  0.12332400672E+03  0.19333005651E+03  0.12509000000E+03 0.  0.
         25    1    4    4    0    0 -0.13153601361E+02 -0.42584092820E+02  0.10929579550E+03  0.17198692160E+03  0.12509000000E+03 0.  0.
<mgrwt>
<rscale>  2 0.45118757E+03</rscale>
<asrwt>0</asrwt>
<pdfrwt beam="1">  1       21 0.60569331E-01 0.45118757E+03</pdfrwt>
<pdfrwt beam="2">  1       21 0.18171202E-01 0.45118757E+03</pdfrwt>
<totfact> 0.64771762E+04</totfact>
</mgrwt>
</event>
<event>
 7    0  0.4709932E-002  0.4213973E+03  0.7546771E-02  0.1036612E+00
         21   -1    0    0  502  501  0.00000000000E+00  0.00000000000E+00  0.74291689102E+03  0.74291689102E+03  0.00000000000E+00 0. -1.
         21   -1    0    0  501  502 -0.00000000000E+00 -0.00000000000E+00 -0.59756236062E+02  0.59756236062E+02  0.00000000000E+00 0. -1.
      99926    2    1    2    0    0  0.00000000000E+00  0.00000000000E+00  0.68316065496E+03  0.80267312708E+03  0.42139728102E+03 0.  0.
      99925    2    3    3    0    0 -0.33096577296E+02 -0.69057867835E+02  0.46845366179E+03  0.54265202495E+03  0.26297911400E+03 0.  0.
         25    1    3    3    0    0  0.33096577296E+02  0.69057867835E+02  0.21470699316E+03  0.26002110213E+03  0.12509000000E+03 0.  0.
         25    1    4    4    0    0  0.24223436572E+02 -0.33704326743E+02  0.22086494935E+03  0.25719951491E+03  0.12509000000E+03 0.  0.
         25    1    4    4    0    0 -0.57320013868E+02 -0.35353541092E+02  0.24758871244E+03  0.28545251004E+03  0.12509000000E+03 0.  0.
<mgrwt>
<rscale>  2 0.42139728E+03</rscale>
<asrwt>0</asrwt>
<pdfrwt beam="1">  1       21 0.10925248E+00 0.42139728E+03</pdfrwt>
<pdfrwt beam="2">  1       21 0.87876822E-02 0.42139728E+03</pdfrwt>
<totfact> 0.62576255E+04</totfact>
</mgrwt>
</event>
<event>
 7    0  0.4709932E-002  0.4515883E+03  0.7546771E-02  0.1027249E+00
         21   -1    0    0  502  501  0.00000000000E+00  0.00000000000E+00  0.60799895203E+03  0.60799895203E+03  0.00000000000E+00 0. -1.
         21   -1    0    0  501  502 -0.00000000000E+00 -0.00000000000E+00 -0.83853756675E+02  0.83853756675E+02  0.00000000000E+00 0. -1.
      99926    2    1    2    0    0  0.00000000000E+00 -0.35527136788E-14  0.52414519536E+03  0.69185270871E+03  0.45158829118E+03 0.  0.
      99925    2    3    3    0    0  0.16279620519E+02  0.23119057196E+02  0.16782235929E+03  0.31315363496E+03  0.26287133348E+03 0.  0.
         25    1    3    3    0    0 -0.16279620519E+02 -0.23119057196E+02  0.35632283607E+03  0.37869907374E+03  0.12509000000E+03 0.  0.
         25    1    4    4    0    0  0.62283210011E+01 -0.18404112783E+02  0.11425960072E+03  0.17052937520E+03  0.12509000000E+03 0.  0.
         25    1    4    4    0    0  0.10051299518E+02  0.41523169980E+02  0.53562758568E+02  0.14262425976E+03  0.12509000000E+03 0.  0.
<mgrwt>
<rscale>  2 0.45158829E+03</rscale>
<asrwt>0</asrwt>
<pdfrwt beam="1">  1       21 0.89411608E-01 0.45158829E+03</pdfrwt>
<pdfrwt beam="2">  1       21 0.12331435E-01 0.45158829E+03</pdfrwt>
<totfact> 0.54804636E+04</totfact>
</mgrwt>
</event>
<event>
 7    0  0.4709932E-002  0.4540007E+03  0.7546771E-02  0.1026536E+00
         21   -1    0    0  502  501  0.00000000000E+00  0.00000000000E+00  0.60313760455E+03  0.60313760455E+03  0.00000000000E+00 0.  1.
         21   -1    0    0  501  502 -0.00000000000E+00 -0.00000000000E+00 -0.85435158699E+02  0.85435158699E+02  0.00000000000E+00 0.  1.
      99926    2    1    2    0    0  0.00000000000E+00  0.00000000000E+00  0.51770244585E+03  0.68857276325E+03  0.45400069146E+03 0.  0.
      99925    2    3    3    0    0  0.20521677244E+02  0.38881832381E+02  0.16946493613E+03  0.31594720401E+03  0.26300443915E+03 0.  0.
         25    1    3    3    0    0 -0.20521677244E+02 -0.38881832381E+02  0.34823750971E+03  0.37262555924E+03  0.12509000000E+03 0.  0.
         25    1    4    4    0    0  0.82423493749E+01  0.58716227112E+02  0.74777186101E+02  0.15733616021E+03  0.12509000000E+03 0.  0.
         25    1    4    4    0    0  0.12279327869E+02 -0.19834394731E+02  0.94687750033E+02  0.15861104379E+03  0.12509000000E+03 0.  0.
<mgrwt>
<rscale>  2 0.45400069E+03</rscale>
<asrwt>0</asrwt>
<pdfrwt beam="1">  1       21 0.88696704E-01 0.45400069E+03</pdfrwt>
<pdfrwt beam="2">  1       21 0.12563994E-01 0.45400069E+03</pdfrwt>
<totfact> 0.53951091E+04</totfact>
</mgrwt>
</event>
<event>
 7    0  0.4709932E-002  0.4544766E+03  0.7546771E-02  0.1026395E+00
         21   -1    0    0  502  501  0.00000000000E+00  0.00000000000E+00  0.83976667631E+02  0.83976667631E+02  0.00000000000E+00 0. -1.
         21   -1    0    0  501  502 -0.00000000000E+00 -0.00000000000E+00 -0.61489979442E+03  0.61489979442E+03  0.00000000000E+00 0. -1.
      99926    2    1    2    0    0  0.00000000000E+00 -0.71054273576E-14 -0.53092312679E+03  0.69887646205E+03  0.45447655897E+03 0.  0.
      99925    2    3    3    0    0 -0.10173183826E+03  0.48225170052E+02 -0.33591331117E+03  0.44128886486E+03  0.26310278539E+03 0.  0.
         25    1    4    4    0    0 -0.18470397993E+02  0.47805777790E+02 -0.14339832344E+03  0.19707139634E+03  0.12509000000E+03 0.  0.
         25    1    4    4    0    0 -0.83261440264E+02  0.41939226279E+00 -0.19251498774E+03  0.24421746852E+03  0.12509000000E+03 0.  0.
         25    1    3    3    0    0  0.10173183826E+03 -0.48225170052E+02 -0.19500981562E+03  0.25758759720E+03  0.12509000000E+03 0.  0.
<mgrwt>
<rscale>  2 0.45447656E+03</rscale>
<asrwt>0</asrwt>
<pdfrwt beam="1">  1       21 0.12349510E-01 0.45447656E+03</pdfrwt>
<pdfrwt beam="2">  1       21 0.90426439E-01 0.45447656E+03</pdfrwt>
<totfact> 0.53182752E+04</totfact>
</mgrwt>
</event>
<event>
 7    0  0.4709932E-002  0.4549767E+03  0.7546771E-02  0.1026248E+00
         21   -1    0    0  502  501  0.00000000000E+00  0.00000000000E+00  0.12541218449E+03  0.12541218449E+03  0.00000000000E+00 0.  1.
         21   -1    0    0  501  502 -0.00000000000E+00 -0.00000000000E+00 -0.41264684153E+03  0.41264684153E+03  0.00000000000E+00 0.  1.
      99926    2    1    2    0    0  0.00000000000E+00 -0.14210854715E-13 -0.28723465705E+03  0.53805902602E+03  0.45497666674E+03 0.  0.
      99925    2    3    3    0    0 -0.96964553455E+01 -0.11154919869E+03 -0.20046808133E+03  0.34907968393E+03  0.26292951361E+03 0.  0.
         25    1    4    4    0    0 -0.47473993564E+01 -0.22180100591E+02 -0.12286063581E+03  0.17679575389E+03  0.12509000000E+03 0.  0.
         25    1    4    4    0    0 -0.49490559891E+01 -0.89369098100E+02 -0.77607445518E+02  0.17228393004E+03  0.12509000000E+03 0.  0.
         25    1    3    3    0    0  0.96964553455E+01  0.11154919869E+03 -0.86766575718E+02  0.18897934209E+03  0.12509000000E+03 0.  0.
<mgrwt>
<rscale>  2 0.45497667E+03</rscale>
<asrwt>0</asrwt>
<pdfrwt beam="1">  1       21 0.18442968E-01 0.45497667E+03</pdfrwt>
<pdfrwt beam="2">  1       21 0.60683359E-01 0.45497667E+03</pdfrwt>
<totfact> 0.62674118E+04</totfact>
</mgrwt>
</event>
<event>
 7    0  0.4709932E-002  0.4529306E+03  0.7546771E-02  0.1026852E+00
         21   -1    0    0  502  501  0.00000000000E+00  0.00000000000E+00  0.72764314438E+03  0.72764314438E+03  0.00000000000E+00 0.  1.
         21   -1    0    0  501  502 -0.00000000000E+00 -0.00000000000E+00 -0.70483084849E+02  0.70483084849E+02  0.00000000000E+00 0.  1.
      99926    2    1    2    0    0  0.00000000000E+00  0.35527136788E-14  0.65716005953E+03  0.79812622923E+03  0.45293060610E+03 0.  0.
      99925    2    3    3    0    0  0.10558303901E+03  0.11000229574E+02  0.47262698023E+03  0.55120772317E+03  0.26303024250E+03 0.  0.
         25    1    3    3    0    0 -0.10558303901E+03 -0.11000229574E+02  0.18453307930E+03  0.24691850606E+03  0.12509000000E+03 0.  0.
         25    1    4    4    0    0  0.71214287967E+02  0.38497089698E+02  0.21696584152E+03  0.26320179561E+03  0.12509000000E+03 0.  0.
         25    1    4    4    0    0  0.34368751039E+02 -0.27496860125E+02  0.25566113871E+03  0.28800592756E+03  0.12509000000E+03 0.  0.
<mgrwt>
<rscale>  2 0.45293061E+03</rscale>
<asrwt>0</asrwt>
<pdfrwt beam="1">  1       21 0.10700634E+00 0.45293061E+03</pdfrwt>
<pdfrwt beam="2">  1       21 0.10365160E-01 0.45293061E+03</pdfrwt>
<totfact> 0.48640726E+04</totfact>
</mgrwt>
</event>
<event>
 7    0  0.4709932E-002  0.4562084E+03  0.7546771E-02  0.1025887E+00
         21   -1    0    0  502  501  0.00000000000E+00  0.00000000000E+00  0.87333504630E+02  0.87333504630E+02  0.00000000000E+00 0. -1.
         21   -1    0    0  501  502 -0.00000000000E+00 -0.00000000000E+00 -0.59577960303E+03  0.59577960303E+03  0.00000000000E+00 0. -1.
      99926    2    1    2    0    0  0.00000000000E+00 -0.71054273576E-14 -0.50844609840E+03  0.68311310766E+03  0.45620837660E+03 0.  0.
      99925    2    3    3    0    0 -0.44075936375E+02 -0.31928957247E+02 -0.47006344885E+03  0.54139902097E+03  0.26304202609E+03 0.  0.
         25    1    4    4    0    0 -0.15902161428E+02  0.17538997248E+02 -0.18055976392E+03  0.22092947202E+03  0.12509000000E+03 0.  0.
         25    1    4    4    0    0 -0.28173774947E+02 -0.49467954495E+02 -0.28950368493E+03  0.32046954895E+03  0.12509000000E+03 0.  0.
         25    1    3    3    0    0  0.44075936375E+02  0.31928957247E+02 -0.38382649552E+02  0.14171408668E+03  0.12509000000E+03 0.  0.
<mgrwt>
<rscale>  2 0.45620838E+03</rscale>
<asrwt>0</asrwt>
<pdfrwt beam="1">  1       21 0.12843162E-01 0.45620838E+03</pdfrwt>
<pdfrwt beam="2">  1       21 0.87614650E-01 0.45620838E+03</pdfrwt>
<totfact> 0.53320609E+04</totfact>
</mgrwt>
</event>
<event>
 7    0  0.4709932E-002  0.4524632E+03  0.7546771E-02  0.1026990E+00
         21   -1    0    0  502  501  0.00000000000E+00  0.00000000000E+00  0.92410031743E+02  0.92410031743E+02  0.00000000000E+00 0.  1.
         21   -1    0    0  501  502 -0.00000000000E+00 -0.00000000000E+00 -0.55384386467E+03  0.55384386467E+03  0.00000000000E+00 0.  1.
      99926    2    1    2    0    0  0.00000000000E+00  0.00000000000E+00 -0.46143383293E+03  0.64625389641E+03  0.45246316586E+03 0.  0.
      99925    2    3    3    0    0 -0.17388304807E+02 -0.10938626456E+03 -0.29890887590E+03  0.41316683591E+03  0.26285473209E+03 0.  0.
         25    1    4    4    0    0 -0.31491923041E+02 -0.30904563855E+02 -0.17682609091E+03  0.22104707148E+03  0.12509000000E+03 0.  0.
         25    1    3    3    0    0  0.17388304807E+02  0.10938626456E+03 -0.16252495702E+03  0.23308706050E+03  0.12509000000E+03 0.  0.
         25    1    4    4    0    0  0.14103618234E+02 -0.78481700702E+02 -0.12208278499E+03  0.19211976443E+03  0.12509000000E+03 0.  0.
<mgrwt>
<rscale>  2 0.45246317E+03</rscale>
<asrwt>0</asrwt>
<pdfrwt beam="1">  1       21 0.13589711E-01 0.45246317E+03</pdfrwt>
<pdfrwt beam="2">  1       21 0.81447626E-01 0.45246317E+03</pdfrwt>
<totfact> 0.57051153E+04</totfact>
</mgrwt>
</event>
<event>
 7    0  0.4709932E-002  0.4552473E+03  0.7546771E-02  0.1026169E+00
         21   -1    0    0  502  501  0.00000000000E+00  0.00000000000E+00  0.12421001319E+03  0.12421001319E+03  0.00000000000E+00 0. -1.
         21   -1    0    0  501  502 -0.00000000000E+00 -0.00000000000E+00 -0.41713641092E+03  0.41713641092E+03  0.00000000000E+00 0. -1.
      99926    2    1    2    0    0  0.00000000000E+00  0.00000000000E+00 -0.29292639774E+03  0.54134642411E+03  0.45524726952E+03 0.  0.
      99925    2    3    3    0    0  0.77621098234E+02 -0.52039787895E+02 -0.26063787190E+03  0.38189978283E+03  0.26302503576E+03 0.  0.
         25    1    4    4    0    0  0.14156630455E+02 -0.99472286423E+01 -0.80557362387E+02  0.14978769735E+03  0.12509000000E+03 0.  0.
         25    1    4    4    0    0  0.63464467779E+02 -0.42092559253E+02 -0.18008050952E+03  0.23211208547E+03  0.12509000000E+03 0.  0.
         25    1    3    3    0    0 -0.77621098234E+02  0.52039787895E+02 -0.32288525831E+02  0.15944664128E+03  0.12509000000E+03 0.  0.
<mgrwt>
<rscale>  2 0.45524727E+03</rscale>
<asrwt>0</asrwt>
<pdfrwt beam="1">  1       21 0.18266178E-01 0.45524727E+03</pdfrwt>
<pdfrwt beam="2">  1       21 0.61343590E-01 0.45524727E+03</pdfrwt>
<totfact> 0.62319958E+04</totfact>
</mgrwt>
</event>
<event>
 7    0  0.4709932E-002  0.4545897E+03  0.7546771E-02  0.1026362E+00
         21   -1    0    0  502  501  0.00000000000E+00  0.00000000000E+00  0.39406168090E+03  0.39406168090E+03  0.00000000000E+00 0.  1.
         21   -1    0    0  501  502 -0.00000000000E+00 -0.00000000000E+00 -0.13110372377E+03  0.13110372377E+03  0.00000000000E+00 0.  1.
      99926    2    1    2    0    0  0.00000000000E+00  0.00000000000E+00  0.26295795713E+03  0.52516540467E+03  0.45458972166E+03 0.  0.
      99925    2    3    3    0    0 -0.16647031762E+02  0.40887085895E+02  0.28551672133E+03  0.39060953002E+03  0.26288234883E+03 0.  0.
         25    1    4    4    0    0 -0.53816266476E+01  0.55973151572E+02  0.17718834607E+03  0.22406511037E+03  0.12509000000E+03 0.  0.
         25    1    4    4    0    0 -0.11265405115E+02 -0.15086065677E+02  0.10832837526E+03  0.16654441965E+03  0.12509000000E+03 0.  0.
         25    1    3    3    0    0  0.16647031762E+02 -0.40887085895E+02 -0.22558764200E+02  0.13455587465E+03  0.12509000000E+03 0.  0.
<mgrwt>
<rscale>  2 0.45458972E+03</rscale>
<asrwt>0</asrwt>
<pdfrwt beam="1">  1       21 0.57950247E-01 0.45458972E+03</pdfrwt>
<pdfrwt beam="2">  1       21 0.19279959E-01 0.45458972E+03</pdfrwt>
<totfact> 0.63742040E+04</totfact>
</mgrwt>
</event>
<event>
 7    0  0.4709932E-002  0.4574478E+03  0.7546771E-02  0.1025524E+00
         21   -1    0    0  502  501  0.00000000000E+00  0.00000000000E+00  0.19329851934E+04  0.19329851934E+04  0.00000000000E+00 0. -1.
         21   -1    0    0  501  502 -0.00000000000E+00 -0.00000000000E+00 -0.27064155404E+02  0.27064155404E+02  0.00000000000E+00 0. -1.
      99926    2    1    2    0    0 -0.71054273576E-14  0.17763568394E-14  0.19059210380E+04  0.19600493488E+04  0.45744775294E+03 0.  0.
      99925    2    3    3    0    0  0.58873221293E+02 -0.83187005339E+01  0.77436783320E+03  0.82005135743E+03  0.26325544772E+03 0.  0.
         25    1    4    4    0    0  0.10823266378E+02 -0.40998906278E+01  0.26395337151E+03  0.29232318182E+03  0.12509000000E+03 0.  0.
         25    1    3    3    0    0 -0.58873221293E+02  0.83187005339E+01  0.11315532048E+04  0.11399979914E+04  0.12509000000E+03 0.  0.
         25    1    4    4    0    0  0.48049954915E+02 -0.42188099062E+01  0.51041446170E+03  0.52772817561E+03  0.12509000000E+03 0.  0.
<mgrwt>
<rscale>  2 0.45744775E+03</rscale>
<asrwt>0</asrwt>
<pdfrwt beam="1">  1       21 0.28426243E+00 0.45744775E+03</pdfrwt>
<pdfrwt beam="2">  1       21 0.39800242E-02 0.45744775E+03</pdfrwt>
<totfact> 0.14103458E+04</totfact>
</mgrwt>
</event>
<event>
 6    0  0.4709932E-002  0.4506478E+03  0.7546771E-02  0.1027529E+00
         21   -1    0    0  502  501  0.00000000000E+00  0.00000000000E+00  0.86725106815E+02  0.86725106815E+02  0.00000000000E+00 0. -1.
         21   -1    0    0  501  502 -0.00000000000E+00 -0.00000000000E+00 -0.58542278755E+03  0.58542278755E+03  0.00000000000E+00 0. -1.
      99926    2    1    2    0    0 -0.14210854715E-13  0.00000000000E+00 -0.49869768073E+03  0.67214789436E+03  0.45064777280E+03 0.  0.
         25    1    3    3    0    0 -0.50487489956E+01  0.35195670293E+02 -0.96235275879E+02  0.16178059679E+03  0.12509000000E+03 0.  0.
         25    1    3    3    0    0  0.82730521240E+02 -0.65215061790E+02 -0.21324655491E+03  0.26873582699E+03  0.12509000000E+03 0.  0.
         25    1    3    3    0    0 -0.77681772245E+02  0.30019391497E+02 -0.18921584994E+03  0.24163147058E+03  0.12509000000E+03 0.  0.
<mgrwt>
<rscale>  2 0.45064777E+03</rscale>
<asrwt>0</asrwt>
<pdfrwt beam="1">  1       21 0.12753692E-01 0.45064777E+03</pdfrwt>
<pdfrwt beam="2">  1       21 0.86091585E-01 0.45064777E+03</pdfrwt>
<totfact> 0.56349076E+04</totfact>
</mgrwt>
</event>
<event>
 7    0  0.4709932E-002  0.4627743E+03  0.7546771E-02  0.1023980E+00
         21   -1    0    0  502  501  0.00000000000E+00  0.00000000000E+00  0.27916269517E+03  0.27916269517E+03  0.00000000000E+00 0.  1.
         21   -1    0    0  501  502 -0.00000000000E+00 -0.00000000000E+00 -0.19178786388E+03  0.19178786388E+03  0.00000000000E+00 0.  1.
      99926    2    1    2    0    0  0.00000000000E+00  0.00000000000E+00  0.87374831289E+02  0.47095055904E+03  0.46277431640E+03 0.  0.
      99925    2    3    3    0    0 -0.60451753575E+02  0.71835098083E+02  0.13111188981E+03  0.30854632814E+03  0.26305097060E+03 0.  0.
         25    1    4    4    0    0 -0.29939479680E+02  0.77951060813E+02  0.70919828753E+02  0.16628250219E+03  0.12509000000E+03 0.  0.
         25    1    4    4    0    0 -0.30512273895E+02 -0.61159627301E+01  0.60192061060E+02  0.14226382595E+03  0.12509000000E+03 0.  0.
         25    1    3    3    0    0  0.60451753575E+02 -0.71835098083E+02 -0.43737058524E+02  0.16240423090E+03  0.12509000000E+03 0.  0.
<mgrwt>
<rscale>  2 0.46277432E+03</rscale>
<asrwt>0</asrwt>
<pdfrwt beam="1">  1       21 0.41053338E-01 0.46277432E+03</pdfrwt>
<pdfrwt beam="2">  1       21 0.28204097E-01 0.46277432E+03</pdfrwt>
<totfact> 0.63363395E+04</totfact>
</mgrwt>
</event>
<event>
 7    0  0.4709932E-002  0.4589190E+03  0.7546771E-02  0.1025095E+00
         21   -1    0    0  502  501  0.00000000000E+00  0.00000000000E+00  0.30599337681E+03  0.30599337681E+03  0.00000000000E+00 0. -1.
         21   -1    0    0  501  502 -0.00000000000E+00 -0.00000000000E+00 -0.17206795309E+03  0.17206795309E+03  0.00000000000E+00 0. -1.
      99926    2    1    2    0    0  0.00000000000E+00  0.00000000000E+00  0.13392542372E+03  0.47806132990E+03  0.45891896455E+03 0.  0.
      99925    2    3    3    0    0 -0.70844072864E+02 -0.48383479318E+01 -0.12720765721E+02  0.27264734486E+03  0.26293053172E+03 0.  0.
         25    1    4    4    0    0 -0.56768458549E+02 -0.14774694199E+02 -0.39232299192E+02  0.14362322540E+03  0.12509000000E+03 0.  0.
         25    1    4    4    0    0 -0.14075614315E+02  0.99363462671E+01  0.26511533471E+02  0.12902411946E+03  0.12509000000E+03 0.  0.
         25    1    3    3    0    0  0.70844072864E+02  0.48383479318E+01  0.14664618944E+03  0.20541398504E+03  0.12509000000E+03 0.  0.
<mgrwt>
<rscale>  2 0.45891896E+03</rscale>
<asrwt>0</asrwt>
<pdfrwt beam="1">  1       21 0.44999026E-01 0.45891896E+03</pdfrwt>
<pdfrwt beam="2">  1       21 0.25304111E-01 0.45891896E+03</pdfrwt>
<totfact> 0.64802479E+04</totfact>
</mgrwt>
</event>
<event>
 7    0  0.4709932E-002  0.4547587E+03  0.7546771E-02  0.1026312E+00
         21   -1    0    0  502  501  0.00000000000E+00  0.00000000000E+00  0.72968371638E+02  0.72968371638E+02  0.00000000000E+00 0. -1.
         21   -1    0    0  501  502 -0.00000000000E+00 -0.00000000000E+00 -0.70854493994E+03  0.70854493994E+03  0.00000000000E+00 0. -1.
      99926    2    1    2    0    0 -0.71054273576E-14  0.00000000000E+00 -0.63557656830E+03  0.78151331158E+03  0.45475870745E+03 0.  0.
      99925    2    3    3    0    0  0.41636768634E+02 -0.79322380675E+02 -0.51812982260E+03  0.58794960952E+03  0.26306001158E+03 0.  0.
         25    1    4    4    0    0  0.39179062045E+02 -0.15725096303E+02 -0.19315820017E+03  0.23396554437E+03  0.12509000000E+03 0.  0.
         25    1    3    3    0    0 -0.41636768634E+02  0.79322380675E+02 -0.11744674571E+03  0.19356370206E+03  0.12509000000E+03 0.  0.
         25    1    4    4    0    0  0.24577065891E+01 -0.63597284373E+02 -0.32497162242E+03  0.35398406515E+03  0.12509000000E+03 0.  0.
<mgrwt>
<rscale>  2 0.45475871E+03</rscale>
<asrwt>0</asrwt>
<pdfrwt beam="1">  1       21 0.10730642E-01 0.45475871E+03</pdfrwt>
<pdfrwt beam="2">  1       21 0.10419780E+00 0.45475871E+03</pdfrwt>
<totfact> 0.48764313E+04</totfact>
</mgrwt>
</event>
<event>
 7    0  0.4709932E-002  0.4481234E+03  0.7546771E-02  0.1028283E+00
         21   -1    0    0  502  501  0.00000000000E+00  0.00000000000E+00  0.60844966313E+02  0.60844966313E+02  0.00000000000E+00 0. -1.
         21   -1    0    0  501  502 -0.00000000000E+00 -0.00000000000E+00 -0.82510776760E+03  0.82510776760E+03  0.00000000000E+00 0. -1.
      99926    2    1    2    0    0  0.00000000000E+00  0.00000000000E+00 -0.76426280129E+03  0.88595273391E+03  0.44812343980E+03 0.  0.
      99925    2    3    3    0    0 -0.17582363122E+02 -0.63574306616E+02 -0.31852285519E+03  0.41831779124E+03  0.26302496695E+03 0.  0.
         25    1    4    4    0    0  0.10137618835E+02 -0.53661074615E+02 -0.20819213577E+03  0.24894528664E+03  0.12509000000E+03 0.  0.
         25    1    3    3    0    0  0.17582363122E+02  0.63574306616E+02 -0.44573994610E+03  0.46763494267E+03  0.12509000000E+03 0.  0.
         25    1    4    4    0    0 -0.27719981956E+02 -0.99132320016E+01 -0.11033071942E+03  0.16937250460E+03  0.12509000000E+03 0.  0.
<mgrwt>
<rscale>  2 0.44812344E+03</rscale>
<asrwt>0</asrwt>
<pdfrwt beam="1">  1       21 0.89477898E-02 0.44812344E+03</pdfrwt>
<pdfrwt beam="2">  1       21 0.12133937E+00 0.44812344E+03</pdfrwt>
<totfact> 0.46289471E+04</totfact>
</mgrwt>
</event>
<event>
 7    0  0.4709932E-002  0.4562541E+03  0.7546771E-02  0.1025873E+00
         21   -1    0    0  502  501  0.00000000000E+00  0.00000000000E+00  0.47015298824E+03  0.47015298824E+03  0.00000000000E+00 0. -1.
         21   -1    0    0  501  502 -0.00000000000E+00 -0.00000000000E+00 -0.11069153374E+03  0.11069153374E+03  0.00000000000E+00 0. -1.
      99926    2    1    2    0    0  0.00000000000E+00  0.00000000000E+00  0.35946145450E+03  0.58084452198E+03  0.45625411937E+03 0.  0.
      99925    2    3    3    0    0 -0.36221582746E+02 -0.65023287274E+02  0.33659766717E+03  0.43350039480E+03  0.26283944111E+03 0.  0.
         25    1    3    3    0    0  0.36221582746E+02  0.65023287274E+02  0.22863787335E+02  0.14734412718E+03  0.12509000000E+03 0.  0.
         25    1    4    4    0    0 -0.37167924212E+02 -0.35480192063E+02  0.22865924201E+03  0.26565552070E+03  0.12509000000E+03 0.  0.
         25    1    4    4    0    0  0.94634146654E+00 -0.29543095211E+02  0.10793842515E+03  0.16784487410E+03  0.12509000000E+03 0.  0.
<mgrwt>
<rscale>  2 0.45625412E+03</rscale>
<asrwt>0</asrwt>
<pdfrwt beam="1">  1       21 0.69140144E-01 0.45625412E+03</pdfrwt>
<pdfrwt beam="2">  1       21 0.16278167E-01 0.45625412E+03</pdfrwt>
<totfact> 0.59283151E+04</totfact>
</mgrwt>
</event>
<event>
 7    0  0.4709932E-002  0.4417165E+03  0.7546771E-02  0.1030221E+00
         21   -1    0    0  502  501  0.00000000000E+00  0.00000000000E+00  0.16166699399E+03  0.16166699399E+03  0.00000000000E+00 0. -1.
         21   -1    0    0  501  502 -0.00000000000E+00 -0.00000000000E+00 -0.30172125074E+03  0.30172125074E+03  0.00000000000E+00 0. -1.
      99926    2    1    2    0    0  0.00000000000E+00  0.00000000000E+00 -0.14005425675E+03  0.46338824474E+03  0.44171650470E+03 0.  0.
      99925    2    3    3    0    0  0.26370978941E+02  0.92194510728E+02 -0.58202311421E+02  0.28578614624E+03  0.26285158547E+03 0.  0.
         25    1    3    3    0    0 -0.26370978941E+02 -0.92194510728E+02 -0.81851945327E+02  0.17760209850E+03  0.12509000000E+03 0.  0.
         25    1    4    4    0    0  0.42132512443E+02  0.58905215035E+02 -0.57015373057E+02  0.15538093135E+03  0.12509000000E+03 0.  0.
         25    1    4    4    0    0 -0.15761533502E+02  0.33289295693E+02 -0.11869383637E+01  0.13040521488E+03  0.12509000000E+03 0.  0.
<mgrwt>
<rscale>  2 0.44171650E+03</rscale>
<asrwt>0</asrwt>
<pdfrwt beam="1">  1       21 0.23774558E-01 0.44171650E+03</pdfrwt>
<pdfrwt beam="2">  1       21 0.44370772E-01 0.44171650E+03</pdfrwt>
<totfact> 0.75588521E+04</totfact>
</mgrwt>
</event>
<event>
 7    0  0.4709932E-002  0.4519699E+03  0.7546771E-02  0.1027136E+00
         21   -1    0    0  502  501  0.00000000000E+00  0.00000000000E+00  0.39036735987E+03  0.39036735987E+03  0.00000000000E+00 0. -1.
         21   -1    0    0  501  502 -0.00000000000E+00 -0.00000000000E+00 -0.13082345183E+03  0.13082345183E+03  0.00000000000E+00 0. -1.
      99926    2    1    2    0    0  0.00000000000E+00 -0.35527136788E-14  0.25954390805E+03  0.52119081170E+03  0.45196993484E+03 0.  0.
      99925    2    3    3    0    0 -0.49030555997E+02 -0.21699459480E+02  0.27506377651E+03  0.38421184843E+03  0.26283797549E+03 0.  0.
         25    1    4    4    0    0 -0.36853486835E+02 -0.39621192027E+01  0.19337194682E+03  0.23326829145E+03  0.12509000000E+03 0.  0.
         25    1    4    4    0    0 -0.12177069162E+02 -0.17737340277E+02  0.81691829695E+02  0.15094355698E+03  0.12509000000E+03 0.  0.
         25    1    3    3    0    0  0.49030555997E+02  0.21699459480E+02 -0.15519868465E+02  0.13697896328E+03  0.12509000000E+03 0.  0.
<mgrwt>
<rscale>  2 0.45196993E+03</rscale>
<asrwt>0</asrwt>
<pdfrwt beam="1">  1       21 0.57406964E-01 0.45196993E+03</pdfrwt>
<pdfrwt beam="2">  1       21 0.19238743E-01 0.45196993E+03</pdfrwt>
<totfact> 0.65362811E+04</totfact>
</mgrwt>
</event>
<event>
 7    0  0.4709932E-002  0.4540434E+03  0.7546771E-02  0.1026523E+00
         21   -1    0    0  502  501  0.00000000000E+00  0.00000000000E+00  0.30475636667E+03  0.30475636667E+03  0.00000000000E+00 0.  1.
         21   -1    0    0  501  502 -0.00000000000E+00 -0.00000000000E+00 -0.16911489671E+03  0.16911489671E+03  0.00000000000E+00 0.  1.
      99926    2    1    2    0    0  0.71054273576E-14 -0.14210854715E-13  0.13564146996E+03  0.47387126338E+03  0.45404335243E+03 0.  0.
      99925    2    3    3    0    0  0.56361411952E+02 -0.96235644002E+02  0.72230975040E+02  0.29468893474E+03  0.26303297620E+03 0.  0.
         25    1    3    3    0    0 -0.56361411952E+02  0.96235644002E+02  0.63410494921E+02  0.17918232865E+03  0.12509000000E+03 0.  0.
         25    1    4    4    0    0  0.40726651242E+02 -0.90115122784E+02  0.42425947471E+02  0.16500565019E+03  0.12509000000E+03 0.  0.
         25    1    4    4    0    0  0.15634760710E+02 -0.61205212173E+01  0.29805027569E+02  0.12968328455E+03  0.12509000000E+03 0.  0.
<mgrwt>
<rscale>  2 0.45404335E+03</rscale>
<asrwt>0</asrwt>
<pdfrwt beam="1">  1       21 0.44817113E-01 0.45404335E+03</pdfrwt>
<pdfrwt beam="2">  1       21 0.24869838E-01 0.45404335E+03</pdfrwt>
<totfact> 0.67661215E+04</totfact>
</mgrwt>
</event>
<event>
 7    0  0.4709932E-002  0.4601800E+03  0.7546771E-02  0.1024729E+00
         21   -1    0    0  502  501  0.00000000000E+00  0.00000000000E+00  0.24876262311E+04  0.24876262311E+04  0.00000000000E+00 0.  1.
         21   -1    0    0  501  502 -0.00000000000E+00 -0.00000000000E+00 -0.21281898979E+02  0.21281898979E+02  0.00000000000E+00 0.  1.
      99926    2    1    2    0    0  0.35527136788E-14  0.00000000000E+00  0.24663443321E+04  0.25089081300E+04  0.46018000889E+03 0.  0.
      99925    2    3    3    0    0  0.23132907410E+02 -0.10445838434E+03  0.12734897390E+04  0.13047502194E+04  0.26296451124E+03 0.  0.
         25    1    3    3    0    0 -0.23132907410E+02  0.10445838434E+03  0.11928545931E+04  0.12041579107E+04  0.12509000000E+03 0.  0.
         25    1    4    4    0    0  0.35347004943E+02 -0.17785230331E+02  0.59710008171E+03  0.61134420817E+03  0.12509000000E+03 0.  0.
         25    1    4    4    0    0 -0.12214097533E+02 -0.86673154007E+02  0.67638965728E+03  0.69340601121E+03  0.12509000000E+03 0.  0.
<mgrwt>
<rscale>  2 0.46018001E+03</rscale>
<asrwt>0</asrwt>
<pdfrwt beam="1">  1       21 0.36582719E+00 0.46018001E+03</pdfrwt>
<pdfrwt beam="2">  1       21 0.31296927E-02 0.46018001E+03</pdfrwt>
<totfact> 0.67645244E+03</totfact>
</mgrwt>
</event>
<event>
 7    0  0.4709932E-002  0.4433560E+03  0.7546771E-02  0.1029722E+00
         21   -1    0    0  502  501  0.00000000000E+00  0.00000000000E+00  0.17937328475E+04  0.17937328475E+04  0.00000000000E+00 0.  1.
         21   -1    0    0  501  502 -0.00000000000E+00 -0.00000000000E+00 -0.27396016372E+02  0.27396016372E+02  0.00000000000E+00 0.  1.
      99926    2    1    2    0    0  0.00000000000E+00  0.14210854715E-13  0.17663368312E+04  0.18211288639E+04  0.44335599447E+03 0.  0.
      99925    2    3    3    0    0  0.41067617851E+02 -0.92173598606E+02  0.11814450210E+04  0.12145577970E+04  0.26297487159E+03 0.  0.
         25    1    3    3    0    0 -0.41067617851E+02  0.92173598606E+02  0.58489181013E+03  0.60657106688E+03  0.12509000000E+03 0.  0.
         25    1    4    4    0    0  0.12916361965E+02 -0.10416114116E+02  0.63102442664E+03  0.64351741465E+03  0.12509000000E+03 0.  0.
         25    1    4    4    0    0  0.28151255885E+02 -0.81757484490E+02  0.55042059439E+03  0.57104038238E+03  0.12509000000E+03 0.  0.
<mgrwt>
<rscale>  2 0.44335599E+03</rscale>
<asrwt>0</asrwt>
<pdfrwt beam="1">  1       21 0.26378416E+00 0.44335599E+03</pdfrwt>
<pdfrwt beam="2">  1       21 0.40288271E-02 0.44335599E+03</pdfrwt>
<totfact> 0.18470583E+04</totfact>
</mgrwt>
</event>
<event>
 7    0  0.4709932E-002  0.4612940E+03  0.7546771E-02  0.1024407E+00
         21   -1    0    0  502  501  0.00000000000E+00  0.00000000000E+00  0.38441919839E+03  0.38441919839E+03  0.00000000000E+00 0.  1.
         21   -1    0    0  501  502 -0.00000000000E+00 -0.00000000000E+00 -0.13838547522E+03  0.13838547522E+03  0.00000000000E+00 0.  1.
      99926    2    1    2    0    0  0.00000000000E+00 -0.35527136788E-14  0.24603372317E+03  0.52280467361E+03  0.46129397765E+03 0.  0.
      99925    2    3    3    0    0  0.24157908165E+02 -0.27719358534E+02  0.25450173106E+02  0.26656927788E+03  0.26279174499E+03 0.  0.
         25    1    4    4    0    0  0.18103925173E+02 -0.52095854711E+02  0.12871329585E+01  0.13671464807E+03  0.12509000000E+03 0.  0.
         25    1    4    4    0    0  0.60539829925E+01  0.24376496177E+02  0.24163040147E+02  0.12985462982E+03  0.12509000000E+03 0.  0.
         25    1    3    3    0    0 -0.24157908165E+02  0.27719358534E+02  0.22058355006E+03  0.25623539573E+03  0.12509000000E+03 0.  0.
<mgrwt>
<rscale>  2 0.46129398E+03</rscale>
<asrwt>0</asrwt>
<pdfrwt beam="1">  1       21 0.56532235E-01 0.46129398E+03</pdfrwt>
<pdfrwt beam="2">  1       21 0.20350805E-01 0.46129398E+03</pdfrwt>
<totfact> 0.60612748E+04</totfact>
</mgrwt>
</event>
<event>
 7    0  0.4709932E-002  0.4590724E+03  0.7546771E-02  0.1025051E+00
         21   -1    0    0  502  501  0.00000000000E+00  0.00000000000E+00  0.24797867105E+03  0.24797867105E+03  0.00000000000E+00 0.  1.
         21   -1    0    0  501  502 -0.00000000000E+00 -0.00000000000E+00 -0.21246531868E+03  0.21246531868E+03  0.00000000000E+00 0.  1.
      99926    2    1    2    0    0  0.00000000000E+00  0.00000000000E+00  0.35513352369E+02  0.46044398974E+03  0.45907240114E+03 0.  0.
      99925    2    3    3    0    0 -0.74197424695E+02 -0.78018112330E+02  0.67908175393E+02  0.29225060003E+03  0.26307187088E+03 0.  0.
         25    1    4    4    0    0 -0.26821336326E+02 -0.44657227075E+02 -0.63737347879E+01  0.13565317765E+03  0.12509000000E+03 0.  0.
         25    1    3    3    0    0  0.74197424695E+02  0.78018112330E+02 -0.32394823024E+02  0.16819338971E+03  0.12509000000E+03 0.  0.
         25    1    4    4    0    0 -0.47376088369E+02 -0.33360885255E+02  0.74281910181E+02  0.15659742237E+03  0.12509000000E+03 0.  0.
<mgrwt>
<rscale>  2 0.45907240E+03</rscale>
<asrwt>0</asrwt>
<pdfrwt beam="1">  1       21 0.36467452E-01 0.45907240E+03</pdfrwt>
<pdfrwt beam="2">  1       21 0.31244900E-01 0.45907240E+03</pdfrwt>
<totfact> 0.65978808E+04</totfact>
</mgrwt>
</event>
<event>
 7    0  0.4709932E-002  0.4523117E+03  0.7546771E-02  0.1027035E+00
         21   -1    0    0  502  501  0.00000000000E+00  0.00000000000E+00  0.29725172908E+03  0.29725172908E+03  0.00000000000E+00 0.  1.
         21   -1    0    0  501  502 -0.00000000000E+00 -0.00000000000E+00 -0.17206449547E+03  0.17206449547E+03  0.00000000000E+00 0.  1.
      99926    2    1    2    0    0  0.00000000000E+00  0.00000000000E+00  0.12518723361E+03  0.46931622455E+03  0.45231170133E+03 0.  0.
      99925    2    3    3    0    0 -0.54960482807E+02  0.49892537573E+02 -0.63654347473E+01  0.27319500533E+03  0.26284039301E+03 0.  0.
         25    1    3    3    0    0  0.54960482807E+02 -0.49892537573E+02  0.13155266836E+03  0.19612121922E+03  0.12509000000E+03 0.  0.
         25    1    4    4    0    0 -0.55654127298E+02  0.74434108506E+01  0.19782290559E+02  0.13853387084E+03  0.12509000000E+03 0.  0.
         25    1    4    4    0    0  0.69364449156E+00  0.42449126723E+02 -0.26147725306E+02  0.13466113449E+03  0.12509000000E+03 0.  0.
<mgrwt>
<rscale>  2 0.45231170E+03</rscale>
<asrwt>0</asrwt>
<pdfrwt beam="1">  1       21 0.43713489E-01 0.45231170E+03</pdfrwt>
<pdfrwt beam="2">  1       21 0.25303602E-01 0.45231170E+03</pdfrwt>
<totfact> 0.68945347E+04</totfact>
</mgrwt>
</event>
<event>
 7    0  0.4709932E-002  0.4570699E+03  0.7546771E-02  0.1025634E+00
         21   -1    0    0  502  501  0.00000000000E+00  0.00000000000E+00  0.70853066589E+02  0.70853066589E+02  0.00000000000E+00 0. -1.
         21   -1    0    0  501  502 -0.00000000000E+00 -0.00000000000E+00 -0.73713425051E+03  0.73713425051E+03  0.00000000000E+00 0. -1.
      99926    2    1    2    0    0 -0.71054273576E-14  0.00000000000E+00 -0.66628118392E+03  0.80798731710E+03  0.45706989460E+03 0.  0.
      99925    2    3    3    0    0 -0.59863359990E+02 -0.82413174478E+01 -0.59183050488E+03  0.65037401534E+03  0.26281452041E+03 0.  0.
         25    1    3    3    0    0  0.59863359990E+02  0.82413174478E+01 -0.74450679039E+02  0.15761330176E+03  0.12509000000E+03 0.  0.
         25    1    4    4    0    0 -0.48176156344E+02 -0.33162764601E+01 -0.21769156473E+03  0.25567374755E+03  0.12509000000E+03 0.  0.
         25    1    4    4    0    0 -0.11687203646E+02 -0.49250409876E+01 -0.37413894015E+03  0.39470026779E+03  0.12509000000E+03 0.  0.
<mgrwt>
<rscale>  2 0.45706989E+03</rscale>
<asrwt>0</asrwt>
<pdfrwt beam="1">  1       21 0.10419570E-01 0.45706989E+03</pdfrwt>
<pdfrwt beam="2">  1       21 0.10840209E+00 0.45706989E+03</pdfrwt>
<totfact> 0.46619033E+04</totfact>
</mgrwt>
</event>
<event>
 7    0  0.4709932E-002  0.4496823E+03  0.7546771E-02  0.1027817E+00
         21   -1    0    0  502  501  0.00000000000E+00  0.00000000000E+00  0.14542307646E+03  0.14542307646E+03  0.00000000000E+00 0. -1.
         21   -1    0    0  501  502 -0.00000000000E+00 -0.00000000000E+00 -0.34763085638E+03  0.34763085638E+03  0.00000000000E+00 0. -1.
      99926    2    1    2    0    0  0.00000000000E+00  0.00000000000E+00 -0.20220777992E+03  0.49305393284E+03  0.44968232612E+03 0.  0.
      99925    2    3    3    0    0  0.77589117539E+02  0.39813962959E+02 -0.57816356586E+02  0.28305008992E+03  0.26300075952E+03 0.  0.
         25    1    3    3    0    0 -0.77589117539E+02 -0.39813962959E+02 -0.14439142333E+03  0.21000384292E+03  0.12509000000E+03 0.  0.
         25    1    4    4    0    0  0.57566355522E+02 -0.15172068902E+02 -0.20911709425E+02  0.14010312150E+03  0.12509000000E+03 0.  0.
         25    1    4    4    0    0  0.20022762017E+02  0.54986031861E+02 -0.36904647161E+02  0.14294696842E+03  0.12509000000E+03 0.  0.
<mgrwt>
<rscale>  2 0.44968233E+03</rscale>
<asrwt>0</asrwt>
<pdfrwt beam="1">  1       21 0.21385746E-01 0.44968233E+03</pdfrwt>
<pdfrwt beam="2">  1       21 0.51122185E-01 0.44968233E+03</pdfrwt>
<totfact> 0.68612434E+04</totfact>
</mgrwt>
</event>
<event>
 7    0  0.4709932E-002  0.4512931E+03  0.7546771E-02  0.1027337E+00
         21   -1    0    0  502  501  0.00000000000E+00  0.00000000000E+00  0.41113166492E+03  0.41113166492E+03  0.00000000000E+00 0.  1.
         21   -1    0    0  501  502 -0.00000000000E+00 -0.00000000000E+00 -0.12384444049E+03  0.12384444049E+03  0.00000000000E+00 0.  1.
      99926    2    1    2    0    0 -0.35527136788E-14  0.00000000000E+00  0.28728722444E+03  0.53497610541E+03  0.45129312430E+03 0.  0.
      99925    2    3    3    0    0  0.31305550877E+02  0.84542305942E+02  0.10739864019E+03  0.29804816309E+03  0.26300342317E+03 0.  0.
         25    1    4    4    0    0  0.25865227940E+02  0.63233634096E+02  0.93087296912E+02  0.17023588178E+03  0.12509000000E+03 0.  0.
         25    1    3    3    0    0 -0.31305550877E+02 -0.84542305942E+02  0.17988858424E+03  0.23692794232E+03  0.12509000000E+03 0.  0.
         25    1    4    4    0    0  0.54403229368E+01  0.21308671846E+02  0.14311343283E+02  0.12781228132E+03  0.12509000000E+03 0.  0.
<mgrwt>
<rscale>  2 0.45129312E+03</rscale>
<asrwt>0</asrwt>
<pdfrwt beam="1">  1       21 0.60460539E-01 0.45129312E+03</pdfrwt>
<pdfrwt beam="2">  1       21 0.18212418E-01 0.45129312E+03</pdfrwt>
<totfact> 0.64749254E+04</totfact>
</mgrwt>
</event>
<event>
 7    0  0.4709932E-002  0.4553161E+03  0.7546771E-02  0.1026149E+00
         21   -1    0    0  502  501  0.00000000000E+00  0.00000000000E+00  0.44809405651E+03  0.44809405651E+03  0.00000000000E+00 0.  1.
         21   -1    0    0  501  502 -0.00000000000E+00 -0.00000000000E+00 -0.11566361231E+03  0.11566361231E+03  0.00000000000E+00 0.  1.
      99926    2    1    2    0    0 -0.14210854715E-13  0.00000000000E+00  0.33243044420E+03  0.56375766882E+03  0.45531605389E+03 0.  0.
      99925    2    3    3    0    0 -0.10306705041E+03 -0.47750442436E+02  0.20643511915E+03  0.35298468273E+03  0.26283037531E+03 0.  0.
         25    1    4    4    0    0 -0.66606058066E+02 -0.13340630333E+02  0.15027348883E+03  0.20698784731E+03  0.12509000000E+03 0.  0.
         25    1    3    3    0    0  0.10306705041E+03  0.47750442436E+02  0.12599532505E+03  0.21077298610E+03  0.12509000000E+03 0.  0.
         25    1    4    4    0    0 -0.36460992347E+02 -0.34409812103E+02  0.56161630321E+02  0.14599683542E+03  0.12509000000E+03 0.  0.
<mgrwt>
<rscale>  2 0.45531605E+03</rscale>
<asrwt>0</asrwt>
<pdfrwt beam="1">  1       21 0.65896184E-01 0.45531605E+03</pdfrwt>
<pdfrwt beam="2">  1       21 0.17009355E-01 0.45531605E+03</pdfrwt>
<totfact> 0.60814285E+04</totfact>
</mgrwt>
</event>
<event>
 7    0  0.4709932E-002  0.4590654E+03  0.7546771E-02  0.1025053E+00
         21   -1    0    0  502  501  0.00000000000E+00  0.00000000000E+00  0.88639804327E+03  0.88639804327E+03  0.00000000000E+00 0. -1.
         21   -1    0    0  501  502 -0.00000000000E+00 -0.00000000000E+00 -0.59437476686E+02  0.59437476686E+02  0.00000000000E+00 0. -1.
      99926    2    1    2    0    0  0.00000000000E+00  0.00000000000E+00  0.82696056659E+03  0.94583551996E+03  0.45906541160E+03 0.  0.
      99925    2    3    3    0    0  0.39774862905E+02  0.98808012456E+02  0.41983314901E+03  0.50680783827E+03  0.26315252019E+03 0.  0.
         25    1    3    3    0    0 -0.39774862905E+02 -0.98808012456E+02  0.40712741758E+03  0.43902768169E+03  0.12509000000E+03 0.  0.
         25    1    4    4    0    0  0.41974441068E+02  0.35081129957E+02  0.15136599257E+03  0.20384236849E+03  0.12509000000E+03 0.  0.
         25    1    4    4    0    0 -0.21995781632E+01  0.63726882499E+02  0.26846715644E+03  0.30296546979E+03  0.12509000000E+03 0.  0.
<mgrwt>
<rscale>  2 0.45906541E+03</rscale>
<asrwt>0</asrwt>
<pdfrwt beam="1">  1       21 0.13035265E+00 0.45906541E+03</pdfrwt>
<pdfrwt beam="2">  1       21 0.87408059E-02 0.45906541E+03</pdfrwt>
<totfact> 0.40022260E+04</totfact>
</mgrwt>
</event>
<event>
 7    0  0.4709932E-002  0.4499262E+03  0.7546771E-02  0.1027744E+00
         21   -1    0    0  502  501  0.00000000000E+00  0.00000000000E+00  0.10803416717E+04  0.10803416717E+04  0.00000000000E+00 0.  1.
         21   -1    0    0  501  502 -0.00000000000E+00 -0.00000000000E+00 -0.46844798726E+02  0.46844798726E+02  0.00000000000E+00 0.  1.
      99926    2    1    2    0    0  0.00000000000E+00  0.00000000000E+00  0.10334968730E+04  0.11271864704E+04  0.44992616357E+03 0.  0.
      99925    2    3    3    0    0 -0.10620543900E+03 -0.20922782098E+02  0.66293947340E+03  0.72138152644E+03  0.26303080279E+03 0.  0.
         25    1    3    3    0    0  0.10620543900E+03  0.20922782098E+02  0.37055739959E+03  0.40580494400E+03  0.12509000000E+03 0.  0.
         25    1    4    4    0    0 -0.51633158417E+02 -0.29005155995E+01  0.43004693069E+03  0.45084616748E+03  0.12509000000E+03 0.  0.
         25    1    4    4    0    0 -0.54572280578E+02 -0.18022266499E+02  0.23289254271E+03  0.27053535896E+03  0.12509000000E+03 0.  0.
<mgrwt>
<rscale>  2 0.44992616E+03</rscale>
<asrwt>0</asrwt>
<pdfrwt beam="1">  1       21 0.15887376E+00 0.44992616E+03</pdfrwt>
<pdfrwt beam="2">  1       21 0.68889417E-02 0.44992616E+03</pdfrwt>
<totfact> 0.35954462E+04</totfact>
</mgrwt>
</event>
<event>
 7    0  0.4709932E-002  0.3915039E+03  0.7546771E-02  0.1046762E+00
         21   -1    0    0  502  501  0.00000000000E+00  0.00000000000E+00  0.62152214223E+02  0.62152214223E+02  0.00000000000E+00 0.  1.
         21   -1    0    0  501  502 -0.00000000000E+00 -0.00000000000E+00 -0.61653199918E+03  0.61653199918E+03  0.00000000000E+00 0.  1.
      99926    2    1    2    0    0  0.00000000000E+00  0.62172489379E-14 -0.55437978496E+03  0.67868421341E+03  0.39150391512E+03 0.  0.
      99925    2    3    3    0    0  0.18510406701E+02  0.53685882090E+01 -0.39861634303E+03  0.47798240764E+03  0.26306032804E+03 0.  0.
         25    1    4    4    0    0 -0.47195210348E+01 -0.33171908028E+02 -0.22067107889E+03  0.25586301514E+03  0.12509000000E+03 0.  0.
         25    1    4    4    0    0  0.23229927736E+02  0.38540496237E+02 -0.17794526414E+03  0.22211939250E+03  0.12509000000E+03 0.  0.
         25    1    3    3    0    0 -0.18510406701E+02 -0.53685882090E+01 -0.15576344193E+03  0.20070180577E+03  0.12509000000E+03 0.  0.
<mgrwt>
<rscale>  2 0.39150392E+03</rscale>
<asrwt>0</asrwt>
<pdfrwt beam="1">  1       21 0.91400310E-02 0.39150392E+03</pdfrwt>
<pdfrwt beam="2">  1       21 0.90666476E-01 0.39150392E+03</pdfrwt>
<totfact> 0.92259541E+04</totfact>
</mgrwt>
</event>
<event>
 6    0  0.4709932E-002  0.4596293E+03  0.7546771E-02  0.1024889E+00
         21   -1    0    0  502  501  0.00000000000E+00  0.00000000000E+00  0.37229234030E+03  0.37229234030E+03  0.00000000000E+00 0. -1.
         21   -1    0    0  501  502 -0.00000000000E+00 -0.00000000000E+00 -0.14186369179E+03  0.14186369179E+03  0.00000000000E+00 0. -1.
      99926    2    1    2    0    0  0.00000000000E+00  0.00000000000E+00  0.23042864851E+03  0.51415603209E+03  0.45962926722E+03 0.  0.
         25    1    3    3    0    0  0.32347208213E+02 -0.91637884164E+02  0.21396122574E+02  0.15984100179E+03  0.12509000000E+03 0.  0.
         25    1    3    3    0    0 -0.36433055780E+02  0.52460859598E+02  0.52113729343E+02  0.14980940634E+03  0.12509000000E+03 0.  0.
         25    1    3    3    0    0  0.40858475675E+01  0.39177024565E+02  0.15691879659E+03  0.20450562395E+03  0.12509000000E+03 0.  0.
<mgrwt>
<rscale>  2 0.45962927E+03</rscale>
<asrwt>0</asrwt>
<pdfrwt beam="1">  1       21 0.54748873E-01 0.45962927E+03</pdfrwt>
<pdfrwt beam="2">  1       21 0.20862308E-01 0.45962927E+03</pdfrwt>
<totfact> 0.61978727E+04</totfact>
</mgrwt>
</event>
<event>
 7    0  0.4709932E-002  0.4591511E+03  0.7546771E-02  0.1025028E+00
         21   -1    0    0  502  501  0.00000000000E+00  0.00000000000E+00  0.24993436536E+03  0.24993436536E+03  0.00000000000E+00 0. -1.
         21   -1    0    0  501  502 -0.00000000000E+00 -0.00000000000E+00 -0.21087509924E+03  0.21087509924E+03  0.00000000000E+00 0. -1.
      99926    2    1    2    0    0  0.00000000000E+00  0.00000000000E+00  0.39059266113E+02  0.46080946460E+03  0.45915110410E+03 0.  0.
      99925    2    3    3    0    0 -0.80987922211E+02 -0.57743723236E+02 -0.37300247386E+02  0.28368898436E+03  0.26304895034E+03 0.  0.
         25    1    4    4    0    0 -0.10646183284E+02 -0.15653020194E+01 -0.19287325245E+01  0.12556679298E+03  0.12509000000E+03 0.  0.
         25    1    4    4    0    0 -0.70341738927E+02 -0.56178421217E+02 -0.35371514861E+02  0.15812219139E+03  0.12509000000E+03 0.  0.
         25    1    3    3    0    0  0.80987922211E+02  0.57743723236E+02  0.76359513499E+02  0.17712048024E+03  0.12509000000E+03 0.  0.
<mgrwt>
<rscale>  2 0.45915110E+03</rscale>
<asrwt>0</asrwt>
<pdfrwt beam="1">  1       21 0.36755054E-01 0.45915110E+03</pdfrwt>
<pdfrwt beam="2">  1       21 0.31011044E-01 0.45915110E+03</pdfrwt>
<totfact> 0.65912072E+04</totfact>
</mgrwt>
</event>
<event>
 7    0  0.4709932E-002  0.4562033E+03  0.7546771E-02  0.1025888E+00
         21   -1    0    0  502  501  0.00000000000E+00  0.00000000000E+00  0.33632379011E+03  0.33632379011E+03  0.00000000000E+00 0. -1.
         21   -1    0    0  501  502 -0.00000000000E+00 -0.00000000000E+00 -0.15470320565E+03  0.15470320565E+03  0.00000000000E+00 0. -1.
      99926    2    1    2    0    0  0.00000000000E+00  0.00000000000E+00  0.18162058446E+03  0.49102699576E+03  0.45620332514E+03 0.  0.
      99925    2    3    3    0    0 -0.59090705408E+02  0.83040334177E+02  0.58497958071E+02  0.28806370402E+03  0.26300433059E+03 0.  0.
         25    1    4    4    0    0 -0.51214672576E+01  0.33476643931E+02 -0.52403187339E+01  0.12969920646E+03  0.12509000000E+03 0.  0.
         25    1    4    4    0    0 -0.53969238151E+02  0.49563690246E+02  0.63738276805E+02  0.15836449756E+03  0.12509000000E+03 0.  0.
         25    1    3    3    0    0  0.59090705408E+02 -0.83040334177E+02  0.12312262639E+03  0.20296329174E+03  0.12509000000E+03 0.  0.
<mgrwt>
<rscale>  2 0.45620333E+03</rscale>
<asrwt>0</asrwt>
<pdfrwt beam="1">  1       21 0.49459381E-01 0.45620333E+03</pdfrwt>
<pdfrwt beam="2">  1       21 0.22750471E-01 0.45620333E+03</pdfrwt>
<totfact> 0.65279912E+04</totfact>
</mgrwt>
</event>
<event>
 6    0  0.4709932E-002  0.4699965E+03  0.7546771E-02  0.1021921E+00
         21   -1    0    0  502  501  0.00000000000E+00  0.00000000000E+00  0.19920376206E+03  0.19920376206E+03  0.00000000000E+00 0.  1.
         21   -1    0    0  501  502 -0.00000000000E+00 -0.00000000000E+00 -0.27722460088E+03  0.27722460088E+03  0.00000000000E+00 0.  1.
      99926    2    1    2    0    0  0.14210854715E-13  0.00000000000E+00 -0.78020838819E+02  0.47642836294E+03  0.46999652523E+03 0.  0.
         25    1    3    3    0    0 -0.10160256445E+03 -0.52284069174E+02  0.21378498122E+02  0.17076666324E+03  0.12509000000E+03 0.  0.
         25    1    3    3    0    0  0.24151060065E+02  0.59118920620E+02 -0.63082658794E+02  0.15396509480E+03  0.12509000000E+03 0.  0.
         25    1    3    3    0    0  0.77451504384E+02 -0.68348514453E+01 -0.36316678147E+02  0.15169660490E+03  0.12509000000E+03 0.  0.
<mgrwt>
<rscale>  2 0.46999653E+03</rscale>
<asrwt>0</asrwt>
<pdfrwt beam="1">  1       21 0.29294671E-01 0.46999653E+03</pdfrwt>
<pdfrwt beam="2">  1       21 0.40768324E-01 0.46999653E+03</pdfrwt>
<totfact> 0.59548251E+04</totfact>
</mgrwt>
</event>
<event>
 7    0  0.4709932E-002  0.4530892E+03  0.7546771E-02  0.1026805E+00
         21   -1    0    0  502  501  0.00000000000E+00  0.00000000000E+00  0.76905792750E+02  0.76905792750E+02  0.00000000000E+00 0. -1.
         21   -1    0    0  501  502 -0.00000000000E+00 -0.00000000000E+00 -0.66734193919E+03  0.66734193919E+03  0.00000000000E+00 0. -1.
      99926    2    1    2    0    0  0.00000000000E+00  0.17763568394E-14 -0.59043614644E+03  0.74424773194E+03  0.45308922242E+03 0.  0.
      99925    2    3    3    0    0  0.24425478973E+02 -0.15056189865E+02 -0.19529037128E+03  0.32878295051E+03  0.26293840830E+03 0.  0.
         25    1    4    4    0    0  0.40882353568E+02 -0.32698957084E+02 -0.11813896505E+03  0.17984691210E+03  0.12509000000E+03 0.  0.
         25    1    3    3    0    0 -0.24425478973E+02  0.15056189865E+02 -0.39514577516E+03  0.41546478142E+03  0.12509000000E+03 0.  0.
         25    1    4    4    0    0 -0.16456874596E+02  0.17642767219E+02 -0.77151406223E+02  0.14893603841E+03  0.12509000000E+03 0.  0.
<mgrwt>
<rscale>  2 0.45308922E+03</rscale>
<asrwt>0</asrwt>
<pdfrwt beam="1">  1       21 0.11309675E-01 0.45308922E+03</pdfrwt>
<pdfrwt beam="2">  1       21 0.98138523E-01 0.45308922E+03</pdfrwt>
<totfact> 0.51332220E+04</totfact>
</mgrwt>
</event>
<event>
 7    0  0.4709932E-002  0.4624830E+03  0.7546771E-02  0.1024064E+00
         21   -1    0    0  502  501  0.00000000000E+00  0.00000000000E+00  0.73090729570E+03  0.73090729570E+03  0.00000000000E+00 0.  1.
         21   -1    0    0  501  502 -0.00000000000E+00 -0.00000000000E+00 -0.73159247916E+02  0.73159247916E+02  0.00000000000E+00 0.  1.
      99926    2    1    2    0    0 -0.14210854715E-13  0.00000000000E+00  0.65774804779E+03  0.80406654362E+03  0.46248298585E+03 0.  0.
      99925    2    3    3    0    0  0.10682815217E+03  0.27906540311E+02  0.32919168764E+03  0.43557255591E+03  0.26299288043E+03 0.  0.
         25    1    3    3    0    0 -0.10682815217E+03 -0.27906540311E+02  0.32855636014E+03  0.36849398771E+03  0.12509000000E+03 0.  0.
         25    1    4    4    0    0  0.84799489736E+02 -0.13237905572E+02  0.17287285601E+03  0.22999723487E+03  0.12509000000E+03 0.  0.
         25    1    4    4    0    0  0.22028662437E+02  0.41144445883E+02  0.15631883164E+03  0.20557532104E+03  0.12509000000E+03 0.  0.
<mgrwt>
<rscale>  2 0.46248299E+03</rscale>
<asrwt>0</asrwt>
<pdfrwt beam="1">  1       21 0.10748636E+00 0.46248299E+03</pdfrwt>
<pdfrwt beam="2">  1       21 0.10758713E-01 0.46248299E+03</pdfrwt>
<totfact> 0.44874946E+04</totfact>
</mgrwt>
</event>
<event>
 7    0  0.4709932E-002  0.4578270E+03  0.7546771E-02  0.1025413E+00
         21   -1    0    0  502  501  0.00000000000E+00  0.00000000000E+00  0.60216204214E+03  0.60216204214E+03  0.00000000000E+00 0.  1.
         21   -1    0    0  501  502 -0.00000000000E+00 -0.00000000000E+00 -0.87022066537E+02  0.87022066537E+02  0.00000000000E+00 0.  1.
      99926    2    1    2    0    0  0.00000000000E+00  0.71054273576E-14  0.51513997560E+03  0.68918410867E+03  0.45782697735E+03 0.  0.
      99925    2    3    3    0    0  0.10191086526E+03  0.36582939535E+02  0.38459854254E+03  0.47844087683E+03  0.26318339191E+03 0.  0.
         25    1    4    4    0    0  0.30616242983E+02  0.53495232606E+02  0.19671925177E+03  0.24113288113E+03  0.12509000000E+03 0.  0.
         25    1    4    4    0    0  0.71294622274E+02 -0.16912293071E+02  0.18787929077E+03  0.23730799570E+03  0.12509000000E+03 0.  0.
         25    1    3    3    0    0 -0.10191086526E+03 -0.36582939535E+02  0.13054143306E+03  0.21074323184E+03  0.12509000000E+03 0.  0.
<mgrwt>
<rscale>  2 0.45782698E+03</rscale>
<asrwt>0</asrwt>
<pdfrwt beam="1">  1       21 0.88553239E-01 0.45782698E+03</pdfrwt>
<pdfrwt beam="2">  1       21 0.12797363E-01 0.45782698E+03</pdfrwt>
<totfact> 0.52320132E+04</totfact>
</mgrwt>
</event>
<event>
 7    0  0.4709932E-002  0.4524297E+03  0.7546771E-02  0.1027000E+00
         21   -1    0    0  502  501  0.00000000000E+00  0.00000000000E+00  0.38654470980E+03  0.38654470980E+03  0.00000000000E+00 0.  1.
         21   -1    0    0  501  502 -0.00000000000E+00 -0.00000000000E+00 -0.13238613868E+03  0.13238613868E+03  0.00000000000E+00 0.  1.
      99926    2    1    2    0    0 -0.14210854715E-13  0.35527136788E-14  0.25415857112E+03  0.51893084848E+03  0.45242971413E+03 0.  0.
      99925    2    3    3    0    0 -0.90194874098E+02  0.14809881039E+02  0.23203110029E+03  0.36243298602E+03  0.26299199600E+03 0.  0.
         25    1    4    4    0    0 -0.83129756086E+02  0.23611044485E+02  0.14055309683E+03  0.20705245446E+03  0.12509000000E+03 0.  0.
         25    1    4    4    0    0 -0.70651180117E+01 -0.88011634456E+01  0.91478003456E+02  0.15538053156E+03  0.12509000000E+03 0.  0.
         25    1    3    3    0    0  0.90194874098E+02 -0.14809881039E+02  0.22127470832E+02  0.15649786246E+03  0.12509000000E+03 0.  0.
<mgrwt>
<rscale>  2 0.45242971E+03</rscale>
<asrwt>0</asrwt>
<pdfrwt beam="1">  1       21 0.56844810E-01 0.45242971E+03</pdfrwt>
<pdfrwt beam="2">  1       21 0.19468550E-01 0.45242971E+03</pdfrwt>
<totfact> 0.65281242E+04</totfact>
</mgrwt>
</event>
<event>
 7    0  0.4709932E-002  0.4424096E+03  0.7546771E-02  0.1030010E+00
         21   -1    0    0  502  501  0.00000000000E+00  0.00000000000E+00  0.12546660361E+04  0.12546660361E+04  0.00000000000E+00 0. -1.
         21   -1    0    0  501  502 -0.00000000000E+00 -0.00000000000E+00 -0.38999671761E+02  0.38999671761E+02  0.00000000000E+00 0. -1.
      99926    2    1    2    0    0  0.14210854715E-13 -0.71054273576E-14  0.12156663643E+04  0.12936657079E+04  0.44240960016E+03 0.  0.
      99925    2    3    3    0    0  0.85726521918E+02 -0.47530162866E+02  0.84410316670E+03  0.88954336143E+03  0.26300015760E+03 0.  0.
         25    1    4    4    0    0  0.34036191468E+02 -0.52256701901E+02  0.34110426798E+03  0.36863105534E+03  0.12509000000E+03 0.  0.
         25    1    3    3    0    0 -0.85726521918E+02  0.47530162866E+02  0.37156319765E+03  0.40412234644E+03  0.12509000000E+03 0.  0.
         25    1    4    4    0    0  0.51690330450E+02  0.47265390355E+01  0.50299889872E+03  0.52091230610E+03  0.12509000000E+03 0.  0.
<mgrwt>
<rscale>  2 0.44240960E+03</rscale>
<asrwt>0</asrwt>
<pdfrwt beam="1">  1       21 0.18450968E+00 0.44240960E+03</pdfrwt>
<pdfrwt beam="2">  1       21 0.57352467E-02 0.44240960E+03</pdfrwt>
<totfact> 0.32353183E+04</totfact>
</mgrwt>
</event>
<event>
 6    0  0.4709932E-002  0.4549798E+03  0.7546771E-02  0.1026247E+00
         21   -1    0    0  502  501  0.00000000000E+00  0.00000000000E+00  0.36080236328E+03  0.36080236328E+03  0.00000000000E+00 0.  1.
         21   -1    0    0  501  502 -0.00000000000E+00 -0.00000000000E+00 -0.14343490652E+03  0.14343490652E+03  0.00000000000E+00 0.  1.
      99926    2    1    2    0    0  0.00000000000E+00  0.00000000000E+00  0.21736745677E+03  0.50423726980E+03  0.45497979405E+03 0.  0.
         25    1    3    3    0    0 -0.34265764384E+02 -0.21406193772E+02  0.64967594920E+02  0.14663104798E+03  0.12509000000E+03 0.  0.
         25    1    3    3    0    0 -0.11332324242E+02 -0.74597831827E+02  0.21500853587E+02  0.14765856863E+03  0.12509000000E+03 0.  0.
         25    1    3    3    0    0  0.45598088625E+02  0.96004025599E+02  0.13089900826E+03  0.20994765319E+03  0.12509000000E+03 0.  0.
<mgrwt>
<rscale>  2 0.45497979E+03</rscale>
<asrwt>0</asrwt>
<pdfrwt beam="1">  1       21 0.53059171E-01 0.45497979E+03</pdfrwt>
<pdfrwt beam="2">  1       21 0.21093369E-01 0.45497979E+03</pdfrwt>
<totfact> 0.64984417E+04</totfact>
</mgrwt>
</event>
<event>
 7    0  0.4709932E-002  0.4590888E+03  0.7546771E-02  0.1025046E+00
         21   -1    0    0  502  501  0.00000000000E+00  0.00000000000E+00  0.33267282078E+03  0.33267282078E+03  0.00000000000E+00 0.  1.
         21   -1    0    0  501  502 -0.00000000000E+00 -0.00000000000E+00 -0.15838575466E+03  0.15838575466E+03  0.00000000000E+00 0.  1.
      99926    2    1    2    0    0  0.00000000000E+00  0.00000000000E+00  0.17428706612E+03  0.49105857545E+03  0.45908881832E+03 0.  0.
      99925    2    3    3    0    0  0.82039266464E+02 -0.82795385359E+02  0.97249205601E+02  0.30352762565E+03  0.26284233765E+03 0.  0.
         25    1    4    4    0    0  0.66121826849E+02 -0.11222855804E+02  0.57881145704E+02  0.15328334419E+03  0.12509000000E+03 0.  0.
         25    1    3    3    0    0 -0.82039266464E+02  0.82795385359E+02  0.77037860517E+02  0.18753094980E+03  0.12509000000E+03 0.  0.
         25    1    4    4    0    0  0.15917439615E+02 -0.71572529555E+02  0.39368059897E+02  0.15024428146E+03  0.12509000000E+03 0.  0.
<mgrwt>
<rscale>  2 0.45908882E+03</rscale>
<asrwt>0</asrwt>
<pdfrwt beam="1">  1       21 0.48922473E-01 0.45908882E+03</pdfrwt>
<pdfrwt beam="2">  1       21 0.23292023E-01 0.45908882E+03</pdfrwt>
<totfact> 0.63807061E+04</totfact>
</mgrwt>
</event>
<event>
 7    0  0.4709932E-002  0.4549032E+03  0.7546771E-02  0.1026270E+00
         21   -1    0    0  502  501  0.00000000000E+00  0.00000000000E+00  0.20265371917E+03  0.20265371917E+03  0.00000000000E+00 0. -1.
         21   -1    0    0  501  502 -0.00000000000E+00 -0.00000000000E+00 -0.25528390284E+03  0.25528390284E+03  0.00000000000E+00 0. -1.
      99926    2    1    2    0    0  0.00000000000E+00  0.00000000000E+00 -0.52630183663E+02  0.45793762201E+03  0.45490320885E+03 0.  0.
      99925    2    3    3    0    0 -0.93206089633E+02 -0.52089938504E+02 -0.71725719383E+02  0.29236925419E+03  0.26255373762E+03 0.  0.
         25    1    4    4    0    0 -0.46102933426E+02 -0.42169605491E+02 -0.74242051556E+02  0.15831344358E+03  0.12509000000E+03 0.  0.
         25    1    3    3    0    0  0.93206089633E+02  0.52089938504E+02  0.19095535720E+02  0.16556836782E+03  0.12509000000E+03 0.  0.
         25    1    4    4    0    0 -0.47103156208E+02 -0.99203330125E+01  0.25163321731E+01  0.13405581061E+03  0.12509000000E+03 0.  0.
<mgrwt>
<rscale>  2 0.45490321E+03</rscale>
<asrwt>0</asrwt>
<pdfrwt beam="1">  1       21 0.29802018E-01 0.45490321E+03</pdfrwt>
<pdfrwt beam="2">  1       21 0.37541750E-01 0.45490321E+03</pdfrwt>
<totfact> 0.68383824E+04</totfact>
</mgrwt>
</event>
<event>
 7    0  0.4709932E-002  0.4583661E+03  0.7546771E-02  0.1025256E+00
         21   -1    0    0  502  501  0.00000000000E+00  0.00000000000E+00  0.21980905560E+03  0.21980905560E+03  0.00000000000E+00 0.  1.
         21   -1    0    0  501  502 -0.00000000000E+00 -0.00000000000E+00 -0.23895685299E+03  0.23895685299E+03  0.00000000000E+00 0.  1.
      99926    2    1    2    0    0  0.00000000000E+00  0.00000000000E+00 -0.19147797386E+02  0.45876590859E+03  0.45836614266E+03 0.  0.
      99925    2    3    3    0    0  0.95014825550E+02  0.59495264360E+02 -0.43471187954E+02  0.28904072193E+03  0.26284461417E+03 0.  0.
         25    1    3    3    0    0 -0.95014825550E+02 -0.59495264360E+02  0.24323390568E+02  0.16972518665E+03  0.12509000000E+03 0.  0.
         25    1    4    4    0    0  0.63993091297E+02  0.19274669538E+02 -0.58053517443E+02  0.15324603619E+03  0.12509000000E+03 0.  0.
         25    1    4    4    0    0  0.31021734253E+02  0.40220594822E+02  0.14582329489E+02  0.13579468575E+03  0.12509000000E+03 0.  0.
<mgrwt>
<rscale>  2 0.45836614E+03</rscale>
<asrwt>0</asrwt>
<pdfrwt beam="1">  1       21 0.32324861E-01 0.45836614E+03</pdfrwt>
<pdfrwt beam="2">  1       21 0.35140714E-01 0.45836614E+03</pdfrwt>
<totfact> 0.66467591E+04</totfact>
</mgrwt>
</event>
<event>
 7    0  0.4709932E-002  0.3991129E+03  0.7546771E-02  0.1044087E+00
         21   -1    0    0  502  501  0.00000000000E+00  0.00000000000E+00  0.16471604130E+03  0.16471604130E+03  0.00000000000E+00 0.  1.
         21   -1    0    0  501  502 -0.00000000000E+00 -0.00000000000E+00 -0.24176621485E+03  0.24176621485E+03  0.00000000000E+00 0.  1.
      99926    2    1    2    0    0  0.00000000000E+00  0.17763568394E-14 -0.77050173551E+02  0.40648225615E+03  0.39911288544E+03 0.  0.
      99925    2    3    3    0    0 -0.41206667784E+02 -0.80971666680E+01 -0.63218657064E+02  0.27380832305E+03  0.26307954233E+03 0.  0.
         25    1    4    4    0    0 -0.19868210744E+02 -0.27943848434E+02 -0.65593984225E+02  0.14534676925E+03  0.12509000000E+03 0.  0.
         25    1    3    3    0    0  0.41206667784E+02  0.80971666680E+01 -0.13831516487E+02  0.13267393311E+03  0.12509000000E+03 0.  0.
         25    1    4    4    0    0 -0.21338457039E+02  0.19846681766E+02  0.23753271609E+01  0.12846155380E+03  0.12509000000E+03 0.  0.
<mgrwt>
<rscale>  2 0.39911289E+03</rscale>
<asrwt>0</asrwt>
<pdfrwt beam="1">  1       21 0.24222947E-01 0.39911289E+03</pdfrwt>
<pdfrwt beam="2">  1       21 0.35553855E-01 0.39911289E+03</pdfrwt>
<totfact> 0.11593113E+05</totfact>
</mgrwt>
</event>
<event>
 7    0  0.4709932E-002  0.4623716E+03  0.7546771E-02  0.1024096E+00
         21   -1    0    0  502  501  0.00000000000E+00  0.00000000000E+00  0.51469240536E+02  0.51469240536E+02  0.00000000000E+00 0.  1.
         21   -1    0    0  501  502 -0.00000000000E+00 -0.00000000000E+00 -0.10384235397E+04  0.10384235397E+04  0.00000000000E+00 0.  1.
      99926    2    1    2    0    0  0.00000000000E+00  0.00000000000E+00 -0.98695429920E+03  0.10898927803E+04  0.46237158626E+03 0.  0.
      99925    2    3    3    0    0  0.75915508597E+02 -0.36759146129E+02 -0.41564522413E+03  0.49899857093E+03  0.26291485729E+03 0.  0.
         25    1    3    3    0    0 -0.75915508597E+02  0.36759146129E+02 -0.57130907508E+03  0.59089420934E+03  0.12509000000E+03 0.  0.
         25    1    4    4    0    0  0.19395819811E+02 -0.77299130887E+01 -0.26108063858E+03  0.29025257505E+03  0.12509000000E+03 0.  0.
         25    1    4    4    0    0  0.56519688786E+02 -0.29029233041E+02 -0.15456458555E+03  0.20874599588E+03  0.12509000000E+03 0.  0.
<mgrwt>
<rscale>  2 0.46237159E+03</rscale>
<asrwt>0</asrwt>
<pdfrwt beam="1">  1       21 0.75690066E-02 0.46237159E+03</pdfrwt>
<pdfrwt beam="2">  1       21 0.15270933E+00 0.46237159E+03</pdfrwt>
<totfact> 0.33857159E+04</totfact>
</mgrwt>
</event>
<event>
 7    0  0.4709932E-002  0.4554909E+03  0.7546771E-02  0.1026097E+00
         21   -1    0    0  502  501  0.00000000000E+00  0.00000000000E+00  0.18753294222E+03  0.18753294222E+03  0.00000000000E+00 0.  1.
         21   -1    0    0  501  502 -0.00000000000E+00 -0.00000000000E+00 -0.27658068966E+03  0.27658068966E+03  0.00000000000E+00 0.  1.
      99926    2    1    2    0    0  0.00000000000E+00  0.00000000000E+00 -0.89047747448E+02  0.46411363188E+03  0.45549090218E+03 0.  0.
      99925    2    3    3    0    0  0.63919207210E+02 -0.47499430753E+02  0.26412328321E+02  0.27617641319E+03  0.26312342949E+03 0.  0.
         25    1    4    4    0    0  0.68488418009E+01 -0.26350930577E+02 -0.19906360742E+02  0.12955712823E+03  0.12509000000E+03 0.  0.
         25    1    4    4    0    0  0.57070365409E+02 -0.21148500175E+02  0.46318689063E+02  0.14661928497E+03  0.12509000000E+03 0.  0.
         25    1    3    3    0    0 -0.63919207210E+02  0.47499430753E+02 -0.11546007577E+03  0.18793721869E+03  0.12509000000E+03 0.  0.
<mgrwt>
<rscale>  2 0.45549090E+03</rscale>
<asrwt>0</asrwt>
<pdfrwt beam="1">  1       21 0.27578374E-01 0.45549090E+03</pdfrwt>
<pdfrwt beam="2">  1       21 0.40673630E-01 0.45549090E+03</pdfrwt>
<totfact> 0.67611826E+04</totfact>
</mgrwt>
</event>
<event>
 7    0  0.4709932E-002  0.4460219E+03  0.7546771E-02  0.1028915E+00
         21   -1    0    0  502  501  0.00000000000E+00  0.00000000000E+00  0.24892831024E+03  0.24892831024E+03  0.00000000000E+00 0.  1.
         21   -1    0    0  501  502 -0.00000000000E+00 -0.00000000000E+00 -0.19979197406E+03  0.19979197406E+03  0.00000000000E+00 0.  1.
      99926    2    1    2    0    0  0.00000000000E+00  0.26645352591E-14  0.49136336181E+02  0.44872028430E+03  0.44602187615E+03 0.  0.
      99925    2    3    3    0    0 -0.86441504047E+02 -0.67790178099E+01  0.89678281640E+02  0.29121077301E+03  0.26314146654E+03 0.  0.
         25    1    4    4    0    0 -0.45053803653E+02 -0.41932967018E+02  0.59300833058E+02  0.15150021732E+03  0.12509000000E+03 0.  0.
         25    1    4    4    0    0 -0.41387700395E+02  0.35153949208E+02  0.30377448582E+02  0.13971055569E+03  0.12509000000E+03 0.  0.
         25    1    3    3    0    0  0.86441504047E+02  0.67790178099E+01 -0.40541945459E+02  0.15750951129E+03  0.12509000000E+03 0.  0.
<mgrwt>
<rscale>  2 0.44602188E+03</rscale>
<asrwt>0</asrwt>
<pdfrwt beam="1">  1       21 0.36607105E-01 0.44602188E+03</pdfrwt>
<pdfrwt beam="2">  1       21 0.29381173E-01 0.44602188E+03</pdfrwt>
<totfact> 0.74181265E+04</totfact>
</mgrwt>
</event>
<event>
 7    0  0.4709932E-002  0.4608698E+03  0.7546771E-02  0.1024529E+00
         21   -1    0    0  502  501  0.00000000000E+00  0.00000000000E+00  0.46141420136E+02  0.46141420136E+02  0.00000000000E+00 0.  1.
         21   -1    0    0  501  502 -0.00000000000E+00 -0.00000000000E+00 -0.11508151654E+04  0.11508151654E+04  0.00000000000E+00 0.  1.
      99926    2    1    2    0    0  0.00000000000E+00  0.00000000000E+00 -0.11046737452E+04  0.11969565855E+04  0.46086981261E+03 0.  0.
      99925    2    3    3    0    0 -0.84872035007E+02 -0.72573273698E+02 -0.79654240363E+03  0.84615382873E+03  0.26272867890E+03 0.  0.
         25    1    4    4    0    0 -0.48883900135E+02 -0.76858900891E+02 -0.40742384127E+03  0.43581948198E+03  0.12509000000E+03 0.  0.
         25    1    3    3    0    0  0.84872035007E+02  0.72573273698E+02 -0.30813134161E+03  0.35080275678E+03  0.12509000000E+03 0.  0.
         25    1    4    4    0    0 -0.35988134872E+02  0.42856271932E+01 -0.38911856236E+03  0.41033434675E+03  0.12509000000E+03 0.  0.
<mgrwt>
<rscale>  2 0.46086981E+03</rscale>
<asrwt>0</asrwt>
<pdfrwt beam="1">  1       21 0.67855027E-02 0.46086981E+03</pdfrwt>
<pdfrwt beam="2">  1       21 0.16923753E+00 0.46086981E+03</pdfrwt>
<totfact> 0.30818986E+04</totfact>
</mgrwt>
</event>
<event>
 7    0  0.4709932E-002  0.4523504E+03  0.7546771E-02  0.1027023E+00
         21   -1    0    0  502  501  0.00000000000E+00  0.00000000000E+00  0.11184313185E+03  0.11184313185E+03  0.00000000000E+00 0. -1.
         21   -1    0    0  501  502 -0.00000000000E+00 -0.00000000000E+00 -0.45738364929E+03  0.45738364929E+03  0.00000000000E+00 0. -1.
      99926    2    1    2    0    0  0.14210854715E-13  0.00000000000E+00 -0.34554051744E+03  0.56922678114E+03  0.45235039425E+03 0.  0.
      99925    2    3    3    0    0  0.10224791123E+03 -0.33174977978E+02 -0.18441458582E+03  0.33865295684E+03  0.26291038625E+03 0.  0.
         25    1    4    4    0    0  0.27161472286E+02 -0.48314758897E+02 -0.78594744287E+02  0.15778689246E+03  0.12509000000E+03 0.  0.
         25    1    4    4    0    0  0.75086438944E+02  0.15139780920E+02 -0.10581984154E+03  0.18086606437E+03  0.12509000000E+03 0.  0.
         25    1    3    3    0    0 -0.10224791123E+03  0.33174977978E+02 -0.16112593162E+03  0.23057382430E+03  0.12509000000E+03 0.  0.
<mgrwt>
<rscale>  2 0.45235039E+03</rscale>
<asrwt>0</asrwt>
<pdfrwt beam="1">  1       21 0.16447520E-01 0.45235039E+03</pdfrwt>
<pdfrwt beam="2">  1       21 0.67262300E-01 0.45235039E+03</pdfrwt>
<totfact> 0.61900419E+04</totfact>
</mgrwt>
</event>
<event>
 7    0  0.4709932E-002  0.4545267E+03  0.7546771E-02  0.1026381E+00
         21   -1    0    0  502  501  0.00000000000E+00  0.00000000000E+00  0.11952567325E+03  0.11952567325E+03  0.00000000000E+00 0.  1.
         21   -1    0    0  501  502 -0.00000000000E+00 -0.00000000000E+00 -0.43211324218E+03  0.43211324218E+03  0.00000000000E+00 0.  1.
      99926    2    1    2    0    0  0.00000000000E+00  0.00000000000E+00 -0.31258756893E+03  0.55163891542E+03  0.45452668212E+03 0.  0.
      99925    2    3    3    0    0  0.66226554126E+02  0.20738510074E+02 -0.30437872390E+03  0.40835271404E+03  0.26322896729E+03 0.  0.
         25    1    4    4    0    0  0.60223545501E+02  0.16426359506E+02 -0.11377150759E+03  0.18024473573E+03  0.12509000000E+03 0.  0.
         25    1    3    3    0    0 -0.66226554126E+02 -0.20738510074E+02 -0.82088450261E+01  0.14328620139E+03  0.12509000000E+03 0.  0.
         25    1    4    4    0    0  0.60030086248E+01  0.43121505682E+01 -0.19060721631E+03  0.22810797830E+03  0.12509000000E+03 0.  0.
<mgrwt>
<rscale>  2 0.45452668E+03</rscale>
<asrwt>0</asrwt>
<pdfrwt beam="1">  1       21 0.17577305E-01 0.45452668E+03</pdfrwt>
<pdfrwt beam="2">  1       21 0.63546065E-01 0.45452668E+03</pdfrwt>
<totfact> 0.61990149E+04</totfact>
</mgrwt>
</event>
<event>
 7    0  0.4709932E-002  0.4548296E+03  0.7546771E-02  0.1026292E+00
         21   -1    0    0  502  501  0.00000000000E+00  0.00000000000E+00  0.30566813748E+03  0.30566813748E+03  0.00000000000E+00 0.  1.
         21   -1    0    0  501  502 -0.00000000000E+00 -0.00000000000E+00 -0.16919489602E+03  0.16919489602E+03  0.00000000000E+00 0.  1.
      99926    2    1    2    0    0  0.00000000000E+00 -0.35527136788E-14  0.13647324146E+03  0.47486303350E+03  0.45482958891E+03 0.  0.
      99925    2    3    3    0    0  0.81904515248E+02  0.17569985863E+02  0.16506927330E+03  0.32162369404E+03  0.26301498352E+03 0.  0.
         25    1    3    3    0    0 -0.81904515248E+02 -0.17569985863E+02 -0.28596031839E+02  0.15323933946E+03  0.12509000000E+03 0.  0.
         25    1    4    4    0    0  0.12544523198E+02 -0.17720340248E+02  0.94517623520E+02  0.15827970425E+03  0.12509000000E+03 0.  0.
         25    1    4    4    0    0  0.69359992050E+02  0.35290326111E+02  0.70551649782E+02  0.16334398979E+03  0.12509000000E+03 0.  0.
<mgrwt>
<rscale>  2 0.45482959E+03</rscale>
<asrwt>0</asrwt>
<pdfrwt beam="1">  1       21 0.44951197E-01 0.45482959E+03</pdfrwt>
<pdfrwt beam="2">  1       21 0.24881602E-01 0.45482959E+03</pdfrwt>
<totfact> 0.67166770E+04</totfact>
</mgrwt>
</event>
<event>
 7    0  0.4709932E-002  0.4566307E+03  0.7546771E-02  0.1025763E+00
         21   -1    0    0  502  501  0.00000000000E+00  0.00000000000E+00  0.11125561649E+04  0.11125561649E+04  0.00000000000E+00 0. -1.
         21   -1    0    0  501  502 -0.00000000000E+00 -0.00000000000E+00 -0.46854175944E+02  0.46854175944E+02  0.00000000000E+00 0. -1.
      99926    2    1    2    0    0  0.00000000000E+00  0.00000000000E+00  0.10657019889E+04  0.11594103408E+04  0.45663071424E+03 0.  0.
      99925    2    3    3    0    0  0.52177251498E+02 -0.98102053118E+02  0.74151781265E+03  0.79459618724E+03  0.26303603536E+03 0.  0.
         25    1    4    4    0    0  0.40506988821E+02 -0.61082723152E+02  0.28636932004E+03  0.32097789764E+03  0.12509000000E+03 0.  0.
         25    1    3    3    0    0 -0.52177251498E+02  0.98102053118E+02  0.32418417628E+03  0.36481415358E+03  0.12509000000E+03 0.  0.
         25    1    4    4    0    0  0.11670262676E+02 -0.37019329966E+02  0.45514849261E+03  0.47361828960E+03  0.12509000000E+03 0.  0.
<mgrwt>
<rscale>  2 0.45663071E+03</rscale>
<asrwt>0</asrwt>
<pdfrwt beam="1">  1       21 0.16361118E+00 0.45663071E+03</pdfrwt>
<pdfrwt beam="2">  1       21 0.68903207E-02 0.45663071E+03</pdfrwt>
<totfact> 0.33047752E+04</totfact>
</mgrwt>
</event>
<event>
 7    0  0.4709932E-002  0.4637705E+03  0.7546771E-02  0.1023693E+00
         21   -1    0    0  502  501  0.00000000000E+00  0.00000000000E+00  0.35804887935E+03  0.35804887935E+03  0.00000000000E+00 0. -1.
         21   -1    0    0  501  502 -0.00000000000E+00 -0.00000000000E+00 -0.15017718055E+03  0.15017718055E+03  0.00000000000E+00 0. -1.
      99926    2    1    2    0    0  0.00000000000E+00  0.00000000000E+00  0.20787169880E+03  0.50822605990E+03  0.46377050877E+03 0.  0.
      99925    2    3    3    0    0 -0.92508506080E+01  0.24439692081E+02  0.25955737237E+03  0.37037906596E+03  0.26292155896E+03 0.  0.
         25    1    4    4    0    0  0.21061286578E+02 -0.18849466400E+02  0.13287561417E+03  0.18466812697E+03  0.12509000000E+03 0.  0.
         25    1    4    4    0    0 -0.30312137186E+02  0.43289158481E+02  0.12668175819E+03  0.18571093899E+03  0.12509000000E+03 0.  0.
         25    1    3    3    0    0  0.92508506080E+01 -0.24439692081E+02 -0.51685673568E+02  0.13784699394E+03  0.12509000000E+03 0.  0.
<mgrwt>
<rscale>  2 0.46377051E+03</rscale>
<asrwt>0</asrwt>
<pdfrwt beam="1">  1       21 0.52654247E-01 0.46377051E+03</pdfrwt>
<pdfrwt beam="2">  1       21 0.22084880E-01 0.46377051E+03</pdfrwt>
<totfact> 0.60382176E+04</totfact>
</mgrwt>
</event>
<event>
 7    0  0.4709932E-002  0.4405941E+03  0.7546771E-02  0.1030565E+00
         21   -1    0    0  502  501  0.00000000000E+00  0.00000000000E+00  0.31416983135E+02  0.31416983135E+02  0.00000000000E+00 0.  1.
         21   -1    0    0  501  502 -0.00000000000E+00 -0.00000000000E+00 -0.15447312120E+04  0.15447312120E+04  0.00000000000E+00 0.  1.
      99926    2    1    2    0    0  0.00000000000E+00 -0.71054273576E-14 -0.15133142288E+04  0.15761481951E+04  0.44059411905E+03 0.  0.
      99925    2    3    3    0    0  0.73642451316E+02  0.54263974508E+02 -0.11027457863E+04  0.11373068301E+04  0.26277512618E+03 0.  0.
         25    1    3    3    0    0 -0.73642451316E+02 -0.54263974508E+02 -0.41056844250E+03  0.43884136501E+03  0.12509000000E+03 0.  0.
         25    1    4    4    0    0  0.55161260086E+00  0.40919167145E+02 -0.57526030640E+03  0.59012423331E+03  0.12509000000E+03 0.  0.
         25    1    4    4    0    0  0.73090838715E+02  0.13344807363E+02 -0.52748547993E+03  0.54718259678E+03  0.12509000000E+03 0.  0.
<mgrwt>
<rscale>  2 0.44059412E+03</rscale>
<asrwt>0</asrwt>
<pdfrwt beam="1">  1       21 0.46201441E-02 0.44059412E+03</pdfrwt>
<pdfrwt beam="2">  1       21 0.22716638E+00 0.44059412E+03</pdfrwt>
<totfact> 0.24613753E+04</totfact>
</mgrwt>
</event>
<event>
 7    0  0.4709932E-002  0.4518136E+03  0.7546771E-02  0.1027183E+00
         21   -1    0    0  502  501  0.00000000000E+00  0.00000000000E+00  0.13460008715E+04  0.13460008715E+04  0.00000000000E+00 0.  1.
         21   -1    0    0  501  502 -0.00000000000E+00 -0.00000000000E+00 -0.37915187632E+02  0.37915187632E+02  0.00000000000E+00 0.  1.
      99926    2    1    2    0    0  0.00000000000E+00  0.00000000000E+00  0.13080856838E+04  0.13839160591E+04  0.45181357038E+03 0.  0.
      99925    2    3    3    0    0 -0.74500960012E+02 -0.67037963095E+02  0.68537523104E+03  0.74090727404E+03  0.26298269880E+03 0.  0.
         25    1    4    4    0    0 -0.22080789454E+02  0.64166620827E+01  0.30785810435E+03  0.33309586507E+03  0.12509000000E+03 0.  0.
         25    1    4    4    0    0 -0.52420170558E+02 -0.73454625178E+02  0.37751712669E+03  0.40781140897E+03  0.12509000000E+03 0.  0.
         25    1    3    3    0    0  0.74500960012E+02  0.67037963095E+02  0.62271045278E+03  0.64300878504E+03  0.12509000000E+03 0.  0.
<mgrwt>
<rscale>  2 0.45181357E+03</rscale>
<asrwt>0</asrwt>
<pdfrwt beam="1">  1       21 0.19794127E+00 0.45181357E+03</pdfrwt>
<pdfrwt beam="2">  1       21 0.55757638E-02 0.45181357E+03</pdfrwt>
<totfact> 0.27436983E+04</totfact>
</mgrwt>
</event>
<event>
 7    0  0.4709932E-002  0.4548860E+03  0.7546771E-02  0.1026275E+00
         21   -1    0    0  502  501  0.00000000000E+00  0.00000000000E+00  0.10503599596E+03  0.10503599596E+03  0.00000000000E+00 0. -1.
         21   -1    0    0  501  502 -0.00000000000E+00 -0.00000000000E+00 -0.49250086670E+03  0.49250086670E+03  0.00000000000E+00 0. -1.
      99926    2    1    2    0    0 -0.88817841970E-15 -0.14210854715E-13 -0.38746487073E+03  0.59753686266E+03  0.45488600351E+03 0.  0.
      99925    2    3    3    0    0 -0.69017032615E+01  0.95216795348E+02 -0.32518944171E+03  0.42830445210E+03  0.26188291098E+03 0.  0.
         25    1    3    3    0    0  0.69017032615E+01 -0.95216795348E+02 -0.62275429028E+02  0.16923241056E+03  0.12509000000E+03 0.  0.
         25    1    4    4    0    0  0.34661288229E+02  0.40021900815E+02 -0.15731643090E+03  0.20784399192E+03  0.12509000000E+03 0.  0.
         25    1    4    4    0    0 -0.41562991491E+02  0.55194894533E+02 -0.16787301081E+03  0.22046046018E+03  0.12509000000E+03 0.  0.
<mgrwt>
<rscale>  2 0.45488600E+03</rscale>
<asrwt>0</asrwt>
<pdfrwt beam="1">  1       21 0.15446470E-01 0.45488600E+03</pdfrwt>
<pdfrwt beam="2">  1       21 0.72426599E-01 0.45488600E+03</pdfrwt>
<totfact> 0.58883158E+04</totfact>
</mgrwt>
</event>
<event>
 7    0  0.4709932E-002  0.4391024E+03  0.7546771E-02  0.1031023E+00
         21   -1    0    0  502  501  0.00000000000E+00  0.00000000000E+00  0.41486759853E+03  0.41486759853E+03  0.00000000000E+00 0.  1.
         21   -1    0    0  501  502 -0.00000000000E+00 -0.00000000000E+00 -0.11618821846E+03  0.11618821846E+03  0.00000000000E+00 0.  1.
      99926    2    1    2    0    0  0.00000000000E+00  0.14210854715E-13  0.29867938006E+03  0.53105581699E+03  0.43910238975E+03 0.  0.
      99925    2    3    3    0    0 -0.33085251474E+02  0.81335915455E+02  0.13947675393E+03  0.31036791684E+03  0.26299109092E+03 0.  0.
         25    1    4    4    0    0  0.70747109722E+01  0.19739250569E+02  0.35028651529E+02  0.13158344910E+03  0.12509000000E+03 0.  0.
         25    1    4    4    0    0 -0.40159962446E+02  0.61596664886E+02  0.10444810240E+03  0.17878446774E+03  0.12509000000E+03 0.  0.
         25    1    3    3    0    0  0.33085251474E+02 -0.81335915455E+02  0.15920262613E+03  0.22068790015E+03  0.12509000000E+03 0.  0.
<mgrwt>
<rscale>  2 0.43910239E+03</rscale>
<asrwt>0</asrwt>
<pdfrwt beam="1">  1       21 0.61009940E-01 0.43910239E+03</pdfrwt>
<pdfrwt beam="2">  1       21 0.17086503E-01 0.43910239E+03</pdfrwt>
<totfact> 0.71747244E+04</totfact>
</mgrwt>
</event>
<event>
 7    0  0.4709932E-002  0.4838896E+03  0.7546771E-02  0.1018072E+00
         21   -1    0    0  502  501  0.00000000000E+00  0.00000000000E+00  0.43477149220E+02  0.43477149220E+02  0.00000000000E+00 0.  1.
         21   -1    0    0  501  502 -0.00000000000E+00 -0.00000000000E+00 -0.13463920293E+04  0.13463920293E+04  0.00000000000E+00 0.  1.
      99926    2    1    2    0    0  0.00000000000E+00  0.00000000000E+00 -0.13029148800E+04  0.13898691785E+04  0.48388960380E+03 0.  0.
      99925    2    3    3    0    0 -0.26419099411E+02 -0.10735932567E+03 -0.10401641688E+04  0.10785663710E+04  0.26294471823E+03 0.  0.
         25    1    4    4    0    0 -0.10757621265E+01 -0.24704018344E+02 -0.58285385753E+03  0.59663856155E+03  0.12509000000E+03 0.  0.
         25    1    4    4    0    0 -0.25343337285E+02 -0.82655307327E+02 -0.45731031131E+03  0.48192780944E+03  0.12509000000E+03 0.  0.
         25    1    3    3    0    0  0.26419099411E+02  0.10735932567E+03 -0.26275071120E+03  0.31130280750E+03  0.12509000000E+03 0.  0.
<mgrwt>
<rscale>  2 0.48388960E+03</rscale>
<asrwt>0</asrwt>
<pdfrwt beam="1">  1       21 0.63936992E-02 0.48388960E+03</pdfrwt>
<pdfrwt beam="2">  1       21 0.19799880E+00 0.48388960E+03</pdfrwt>
<totfact> 0.21382994E+04</totfact>
</mgrwt>
</event>
<event>
 7    0  0.4709932E-002  0.4468710E+03  0.7546771E-02  0.1028659E+00
         21   -1    0    0  502  501  0.00000000000E+00  0.00000000000E+00  0.56548993282E+03  0.56548993282E+03  0.00000000000E+00 0.  1.
         21   -1    0    0  501  502 -0.00000000000E+00 -0.00000000000E+00 -0.88283505797E+02  0.88283505797E+02  0.00000000000E+00 0.  1.
      99926    2    1    2    0    0  0.14210854715E-13  0.00000000000E+00  0.47720642702E+03  0.65377343861E+03  0.44687104969E+03 0.  0.
      99925    2    3    3    0    0 -0.72895978312E+02  0.50530937673E+02  0.38565622403E+03  0.47517851404E+03  0.26305265206E+03 0.  0.
         25    1    4    4    0    0  0.36000983210E+01  0.14852267304E+02  0.19213089160E+03  0.22977236161E+03  0.12509000000E+03 0.  0.
         25    1    4    4    0    0 -0.76496076633E+02  0.35678670369E+02  0.19352533242E+03  0.24540615243E+03  0.12509000000E+03 0.  0.
         25    1    3    3    0    0  0.72895978312E+02 -0.50530937673E+02  0.91550202994E+02  0.17859492458E+03  0.12509000000E+03 0.  0.
<mgrwt>
<rscale>  2 0.44687105E+03</rscale>
<asrwt>0</asrwt>
<pdfrwt beam="1">  1       21 0.83160282E-01 0.44687105E+03</pdfrwt>
<pdfrwt beam="2">  1       21 0.12982869E-01 0.44687105E+03</pdfrwt>
<totfact> 0.59189216E+04</totfact>
</mgrwt>
</event>
<event>
 7    0  0.4709932E-002  0.4544099E+03  0.7546771E-02  0.1026415E+00
         21   -1    0    0  502  501  0.00000000000E+00  0.00000000000E+00  0.20090535943E+03  0.20090535943E+03  0.00000000000E+00 0.  1.
         21   -1    0    0  501  502 -0.00000000000E+00 -0.00000000000E+00 -0.25694733458E+03  0.25694733458E+03  0.00000000000E+00 0.  1.
      99926    2    1    2    0    0  0.71054273576E-14  0.00000000000E+00 -0.56041975140E+02  0.45785269401E+03  0.45440993215E+03 0.  0.
      99925    2    3    3    0    0 -0.33145599266E+02 -0.43374992477E+02 -0.13443391244E+03  0.30045884198E+03  0.26310267613E+03 0.  0.
         25    1    3    3    0    0  0.33145599266E+02  0.43374992477E+02  0.78391937303E+02  0.15739385203E+03  0.12509000000E+03 0.  0.
         25    1    4    4    0    0 -0.26331991256E+02 -0.13906160413E+02 -0.11053276308E+03  0.16956342434E+03  0.12509000000E+03 0.  0.
         25    1    4    4    0    0 -0.68136080096E+01 -0.29468832064E+02 -0.23901149364E+02  0.13089541764E+03  0.12509000000E+03 0.  0.
<mgrwt>
<rscale>  2 0.45440993E+03</rscale>
<asrwt>0</asrwt>
<pdfrwt beam="1">  1       21 0.29544906E-01 0.45440993E+03</pdfrwt>
<pdfrwt beam="2">  1       21 0.37786372E-01 0.45440993E+03</pdfrwt>
<totfact> 0.68659830E+04</totfact>
</mgrwt>
</event>
<event>
 7    0  0.4709932E-002  0.4542466E+03  0.7546771E-02  0.1026463E+00
         21   -1    0    0  502  501  0.00000000000E+00  0.00000000000E+00  0.54784644652E+02  0.54784644652E+02  0.00000000000E+00 0.  1.
         21   -1    0    0  501  502 -0.00000000000E+00 -0.00000000000E+00 -0.94159588207E+03  0.94159588207E+03  0.00000000000E+00 0.  1.
      99926    2    1    2    0    0  0.00000000000E+00  0.00000000000E+00 -0.88681123742E+03  0.99638052673E+03  0.45424661058E+03 0.  0.
      99925    2    3    3    0    0  0.86496703843E+02  0.26274606556E+02 -0.41168071279E+03  0.49681215477E+03  0.26300051923E+03 0.  0.
         25    1    4    4    0    0  0.15833893729E+02 -0.36899870408E+01 -0.23854763275E+03  0.26984589933E+03  0.12509000000E+03 0.  0.
         25    1    4    4    0    0  0.70662810114E+02  0.29964593597E+02 -0.17313308004E+03  0.22696625544E+03  0.12509000000E+03 0.  0.
         25    1    3    3    0    0 -0.86496703843E+02 -0.26274606556E+02 -0.47513052463E+03  0.49956837196E+03  0.12509000000E+03 0.  0.
<mgrwt>
<rscale>  2 0.45424661E+03</rscale>
<asrwt>0</asrwt>
<pdfrwt beam="1">  1       21 0.80565659E-02 0.45424661E+03</pdfrwt>
<pdfrwt beam="2">  1       21 0.13846997E+00 0.45424661E+03</pdfrwt>
<totfact> 0.39540014E+04</totfact>
</mgrwt>
</event>
<event>
 7    0  0.4709932E-002  0.4598178E+03  0.7546771E-02  0.1024834E+00
         21   -1    0    0  502  501  0.00000000000E+00  0.00000000000E+00  0.48038208933E+03  0.48038208933E+03  0.00000000000E+00 0. -1.
         21   -1    0    0  501  502 -0.00000000000E+00 -0.00000000000E+00 -0.11003346251E+03  0.11003346251E+03  0.00000000000E+00 0. -1.
      99926    2    1    2    0    0  0.00000000000E+00  0.00000000000E+00  0.37034862682E+03  0.59041555184E+03  0.45981781008E+03 0.  0.
      99925    2    3    3    0    0  0.99392675665E+02 -0.51051141053E+02  0.27971069664E+03  0.39976439012E+03  0.26284666788E+03 0.  0.
         25    1    3    3    0    0 -0.99392675665E+02  0.51051141053E+02  0.90637930173E+02  0.19065116172E+03  0.12509000000E+03 0.  0.
         25    1    4    4    0    0  0.17767642702E+02 -0.13756153907E+02  0.91469168018E+02  0.15658556030E+03  0.12509000000E+03 0.  0.
         25    1    4    4    0    0  0.81625032962E+02 -0.37294987146E+02  0.18824152863E+03  0.24317882982E+03  0.12509000000E+03 0.  0.
<mgrwt>
<rscale>  2 0.45981781E+03</rscale>
<asrwt>0</asrwt>
<pdfrwt beam="1">  1       21 0.70644424E-01 0.45981781E+03</pdfrwt>
<pdfrwt beam="2">  1       21 0.16181392E-01 0.45981781E+03</pdfrwt>
<totfact> 0.57067856E+04</totfact>
</mgrwt>
</event>
<event>
 7    0  0.4709932E-002  0.4503507E+03  0.7546771E-02  0.1027618E+00
         21   -1    0    0  502  501  0.00000000000E+00  0.00000000000E+00  0.22857139067E+03  0.22857139067E+03  0.00000000000E+00 0.  1.
         21   -1    0    0  501  502 -0.00000000000E+00 -0.00000000000E+00 -0.22182973358E+03  0.22182973358E+03  0.00000000000E+00 0.  1.
      99926    2    1    2    0    0 -0.35527136788E-14  0.00000000000E+00  0.67416570926E+01  0.45040112425E+03  0.45035066647E+03 0.  0.
      99925    2    3    3    0    0  0.19829012686E+02  0.10487931332E+03  0.26077518605E+02  0.28482865146E+03  0.26278215999E+03 0.  0.
         25    1    3    3    0    0 -0.19829012686E+02 -0.10487931332E+03 -0.19335861513E+02  0.16557247279E+03  0.12509000000E+03 0.  0.
         25    1    4    4    0    0  0.97026109132E+01  0.40568933314E+02 -0.26188593601E+02  0.13443708396E+03  0.12509000000E+03 0.  0.
         25    1    4    4    0    0  0.10126401773E+02  0.64310380008E+02  0.52266112207E+02  0.15039156750E+03  0.12509000000E+03 0.  0.
<mgrwt>
<rscale>  2 0.45035067E+03</rscale>
<asrwt>0</asrwt>
<pdfrwt beam="1">  1       21 0.33613440E-01 0.45035067E+03</pdfrwt>
<pdfrwt beam="2">  1       21 0.32622019E-01 0.45035067E+03</pdfrwt>
<totfact> 0.71499855E+04</totfact>
</mgrwt>
</event>
<event>
 7    0  0.4709932E-002  0.5065775E+03  0.7546771E-02  0.1012076E+00
         21   -1    0    0  502  501  0.00000000000E+00  0.00000000000E+00  0.11261948610E+03  0.11261948610E+03  0.00000000000E+00 0.  1.
         21   -1    0    0  501  502 -0.00000000000E+00 -0.00000000000E+00 -0.56966323639E+03  0.56966323639E+03  0.00000000000E+00 0.  1.
      99926    2    1    2    0    0  0.00000000000E+00  0.00000000000E+00 -0.45704375028E+03  0.68228272249E+03  0.50657746074E+03 0.  0.
      99925    2    3    3    0    0  0.71698933485E+02  0.12805005511E+03 -0.20241207361E+03  0.36287334168E+03  0.26299973552E+03 0.  0.
         25    1    3    3    0    0 -0.71698933485E+02 -0.12805005511E+03 -0.25463167668E+03  0.31940938080E+03  0.12509000000E+03 0.  0.
         25    1    4    4    0    0  0.13415096304E+02  0.87268686298E+02 -0.74214953753E+02  0.17015039194E+03  0.12509000000E+03 0.  0.
         25    1    4    4    0    0  0.58283837181E+02  0.40781368817E+02 -0.12819711985E+03  0.19272294974E+03  0.12509000000E+03 0.  0.
<mgrwt>
<rscale>  2 0.50657746E+03</rscale>
<asrwt>0</asrwt>
<pdfrwt beam="1">  1       21 0.16561689E-01 0.50657746E+03</pdfrwt>
<pdfrwt beam="2">  1       21 0.83774004E-01 0.50657746E+03</pdfrwt>
<totfact> 0.36577652E+04</totfact>
</mgrwt>
</event>
<event>
 7    0  0.4709932E-002  0.4585095E+03  0.7546771E-02  0.1025214E+00
         21   -1    0    0  502  501  0.00000000000E+00  0.00000000000E+00  0.33047716231E+03  0.33047716231E+03  0.00000000000E+00 0.  1.
         21   -1    0    0  501  502 -0.00000000000E+00 -0.00000000000E+00 -0.15903592283E+03  0.15903592283E+03  0.00000000000E+00 0.  1.
      99926    2    1    2    0    0  0.00000000000E+00  0.88817841970E-15  0.17144123947E+03  0.48951308514E+03  0.45850950037E+03 0.  0.
      99925    2    3    3    0    0 -0.24342480245E+02 -0.58249214219E+01 -0.13810431522E+02  0.26458603972E+03  0.26303718053E+03 0.  0.
         25    1    4    4    0    0 -0.31432849612E+01 -0.13604243446E+02 -0.45059678009E+02  0.13368933526E+03  0.12509000000E+03 0.  0.
         25    1    4    4    0    0 -0.21199195283E+02  0.77793220244E+01  0.31249246488E+02  0.13089670446E+03  0.12509000000E+03 0.  0.
         25    1    3    3    0    0  0.24342480245E+02  0.58249214219E+01  0.18525167100E+03  0.22492704542E+03  0.12509000000E+03 0.  0.
<mgrwt>
<rscale>  2 0.45850950E+03</rscale>
<asrwt>0</asrwt>
<pdfrwt beam="1">  1       21 0.48599583E-01 0.45850950E+03</pdfrwt>
<pdfrwt beam="2">  1       21 0.23387636E-01 0.45850950E+03</pdfrwt>
<totfact> 0.64206320E+04</totfact>
</mgrwt>
</event>
<event>
 7    0  0.4709932E-002  0.4579084E+03  0.7546771E-02  0.1025390E+00
         21   -1    0    0  502  501  0.00000000000E+00  0.00000000000E+00  0.59332874196E+03  0.59332874196E+03  0.00000000000E+00 0. -1.
         21   -1    0    0  501  502 -0.00000000000E+00 -0.00000000000E+00 -0.88349037291E+02  0.88349037291E+02  0.00000000000E+00 0. -1.
      99926    2    1    2    0    0  0.00000000000E+00  0.00000000000E+00  0.50497970467E+03  0.68167777926E+03  0.45790838887E+03 0.  0.
      99925    2    3    3    0    0 -0.99162741555E+02 -0.35468240574E+02  0.24421513267E+03  0.37388415438E+03  0.26278714670E+03 0.  0.
         25    1    4    4    0    0 -0.64359243853E+02 -0.47084147348E+02  0.16250479837E+03  0.22003260394E+03  0.12509000000E+03 0.  0.
         25    1    4    4    0    0 -0.34803497703E+02  0.11615906774E+02  0.81710334295E+02  0.15385155044E+03  0.12509000000E+03 0.  0.
         25    1    3    3    0    0  0.99162741555E+02  0.35468240574E+02  0.26076457201E+03  0.30779362488E+03  0.12509000000E+03 0.  0.
<mgrwt>
<rscale>  2 0.45790839E+03</rscale>
<asrwt>0</asrwt>
<pdfrwt beam="1">  1       21 0.87254225E-01 0.45790839E+03</pdfrwt>
<pdfrwt beam="2">  1       21 0.12992506E-01 0.45790839E+03</pdfrwt>
<totfact> 0.52691949E+04</totfact>
</mgrwt>
</event>
<event>
 7    0  0.4709932E-002  0.4018789E+03  0.7546771E-02  0.1043131E+00
         21   -1    0    0  502  501  0.00000000000E+00  0.00000000000E+00  0.12532716963E+03  0.12532716963E+03  0.00000000000E+00 0.  1.
         21   -1    0    0  501  502 -0.00000000000E+00 -0.00000000000E+00 -0.32217009737E+03  0.32217009737E+03  0.00000000000E+00 0.  1.
      99926    2    1    2    0    0  0.00000000000E+00  0.35527136788E-14 -0.19684292774E+03  0.44749726700E+03  0.40187891929E+03 0.  0.
      99925    2    3    3    0    0 -0.20964085445E+02 -0.28983655019E+02 -0.94058632206E+02  0.28169116142E+03  0.26310328579E+03 0.  0.
         25    1    4    4    0    0 -0.16143157763E+02 -0.54860149048E+02 -0.43976610727E+02  0.14440113534E+03  0.12509000000E+03 0.  0.
         25    1    4    4    0    0 -0.48209276823E+01  0.25876494029E+02 -0.50082021479E+02  0.13729002608E+03  0.12509000000E+03 0.  0.
         25    1    3    3    0    0  0.20964085445E+02  0.28983655019E+02 -0.10278429553E+03  0.16580610557E+03  0.12509000000E+03 0.  0.
<mgrwt>
<rscale>  2 0.40187892E+03</rscale>
<asrwt>0</asrwt>
<pdfrwt beam="1">  1       21 0.18430466E-01 0.40187892E+03</pdfrwt>
<pdfrwt beam="2">  1       21 0.47377955E-01 0.40187892E+03</pdfrwt>
<totfact> 0.10797952E+05</totfact>
</mgrwt>
</event>
<event>
 7    0  0.4709932E-002  0.4526013E+03  0.7546771E-02  0.1026949E+00
         21   -1    0    0  502  501  0.00000000000E+00  0.00000000000E+00  0.41892842293E+03  0.41892842293E+03  0.00000000000E+00 0. -1.
         21   -1    0    0  501  502 -0.00000000000E+00 -0.00000000000E+00 -0.12224518892E+03  0.12224518892E+03  0.00000000000E+00 0. -1.
      99926    2    1    2    0    0  0.00000000000E+00  0.00000000000E+00  0.29668323402E+03  0.54117361185E+03  0.45260130006E+03 0.  0.
      99925    2    3    3    0    0  0.68590330009E+02  0.84392610954E+02  0.16115872611E+03  0.32706815537E+03  0.26301083076E+03 0.  0.
         25    1    4    4    0    0  0.68680470097E+02  0.27581977239E+02  0.64079898681E+02  0.15884430728E+03  0.12509000000E+03 0.  0.
         25    1    4    4    0    0 -0.90140087688E-01  0.56810633715E+02  0.97078827431E+02  0.16822384808E+03  0.12509000000E+03 0.  0.
         25    1    3    3    0    0 -0.68590330009E+02 -0.84392610954E+02  0.13552450791E+03  0.21410545649E+03  0.12509000000E+03 0.  0.
<mgrwt>
<rscale>  2 0.45260130E+03</rscale>
<asrwt>0</asrwt>
<pdfrwt beam="1">  1       21 0.61607120E-01 0.45260130E+03</pdfrwt>
<pdfrwt beam="2">  1       21 0.17977234E-01 0.45260130E+03</pdfrwt>
<totfact> 0.63653280E+04</totfact>
</mgrwt>
</event>
<event>
 7    0  0.4709932E-002  0.4537340E+03  0.7546771E-02  0.1026614E+00
         21   -1    0    0  502  501  0.00000000000E+00  0.00000000000E+00  0.22645864360E+03  0.22645864360E+03  0.00000000000E+00 0. -1.
         21   -1    0    0  501  502 -0.00000000000E+00 -0.00000000000E+00 -0.22727605558E+03  0.22727605558E+03  0.00000000000E+00 0. -1.
      99926    2    1    2    0    0  0.00000000000E+00  0.00000000000E+00 -0.81741198580E+00  0.45373469918E+03  0.45373396289E+03 0.  0.
      99925    2    3    3    0    0 -0.49702907175E+02 -0.96072782902E+02 -0.29299704038E+02  0.28592794229E+03  0.26305124393E+03 0.  0.
         25    1    3    3    0    0  0.49702907175E+02  0.96072782902E+02  0.28482292052E+02  0.16780675689E+03  0.12509000000E+03 0.  0.
         25    1    4    4    0    0 -0.37018751639E+02 -0.38762215109E+02  0.23315320646E+02  0.13807247941E+03  0.12509000000E+03 0.  0.
         25    1    4    4    0    0 -0.12684155536E+02 -0.57310567794E+02 -0.52615024684E+02  0.14785546289E+03  0.12509000000E+03 0.  0.
<mgrwt>
<rscale>  2 0.45373396E+03</rscale>
<asrwt>0</asrwt>
<pdfrwt beam="1">  1       21 0.33302742E-01 0.45373396E+03</pdfrwt>
<pdfrwt beam="2">  1       21 0.33422949E-01 0.45373396E+03</pdfrwt>
<totfact> 0.69336353E+04</totfact>
</mgrwt>
</event>
<event>
 7    0  0.4709932E-002  0.4719152E+03  0.7546771E-02  0.1021381E+00
         21   -1    0    0  502  501  0.00000000000E+00  0.00000000000E+00  0.67640805084E+03  0.67640805084E+03  0.00000000000E+00 0. -1.
         21   -1    0    0  501  502 -0.00000000000E+00 -0.00000000000E+00 -0.82311258951E+02  0.82311258951E+02  0.00000000000E+00 0. -1.
      99926    2    1    2    0    0  0.00000000000E+00  0.35527136788E-14  0.59409679189E+03  0.75871930979E+03  0.47191523912E+03 0.  0.
      99925    2    3    3    0    0 -0.59974239514E+02 -0.22272277281E+02  0.54719796068E+03  0.61059783191E+03  0.26327009026E+03 0.  0.
         25    1    3    3    0    0  0.59974239514E+02  0.22272277281E+02  0.46898831215E+02  0.14812147788E+03  0.12509000000E+03 0.  0.
         25    1    4    4    0    0 -0.54707221488E+02 -0.38678688437E+02  0.33260097494E+03  0.36160729757E+03  0.12509000000E+03 0.  0.
         25    1    4    4    0    0 -0.52670180253E+01  0.16406411156E+02  0.21459698574E+03  0.24899053434E+03  0.12509000000E+03 0.  0.
<mgrwt>
<rscale>  2 0.47191524E+03</rscale>
<asrwt>0</asrwt>
<pdfrwt beam="1">  1       21 0.99471770E-01 0.47191524E+03</pdfrwt>
<pdfrwt beam="2">  1       21 0.12104597E-01 0.47191524E+03</pdfrwt>
<totfact> 0.43720541E+04</totfact>
</mgrwt>
</event>
<event>
 7    0  0.4709932E-002  0.4561997E+03  0.7546771E-02  0.1025889E+00
         21   -1    0    0  502  501  0.00000000000E+00  0.00000000000E+00  0.21761205189E+03  0.21761205189E+03  0.00000000000E+00 0. -1.
         21   -1    0    0  501  502 -0.00000000000E+00 -0.00000000000E+00 -0.23909309548E+03  0.23909309548E+03  0.00000000000E+00 0. -1.
      99926    2    1    2    0    0  0.00000000000E+00  0.00000000000E+00 -0.21481043597E+02  0.45670514737E+03  0.45619968917E+03 0.  0.
      99925    2    3    3    0    0  0.10603793175E+03 -0.31043841627E+02 -0.42884175201E+02  0.28843938967E+03  0.26296476181E+03 0.  0.
         25    1    4    4    0    0  0.79652075162E+02  0.12346010341E+01  0.43882104800E+01  0.14836691615E+03  0.12509000000E+03 0.  0.
         25    1    3    3    0    0 -0.10603793175E+03  0.31043841627E+02  0.21403131604E+02  0.16826575770E+03  0.12509000000E+03 0.  0.
         25    1    4    4    0    0  0.26385856591E+02 -0.32278442661E+02 -0.47272385681E+02  0.14007247351E+03  0.12509000000E+03 0.  0.
<mgrwt>
<rscale>  2 0.45619969E+03</rscale>
<asrwt>0</asrwt>
<pdfrwt beam="1">  1       21 0.32001773E-01 0.45619969E+03</pdfrwt>
<pdfrwt beam="2">  1       21 0.35160749E-01 0.45619969E+03</pdfrwt>
<totfact> 0.67770047E+04</totfact>
</mgrwt>
</event>
<event>
 7    0  0.4709932E-002  0.4520117E+03  0.7546771E-02  0.1027124E+00
         21   -1    0    0  502  501  0.00000000000E+00  0.00000000000E+00  0.10127844907E+03  0.10127844907E+03  0.00000000000E+00 0.  1.
         21   -1    0    0  501  502 -0.00000000000E+00 -0.00000000000E+00 -0.50433883974E+03  0.50433883974E+03  0.00000000000E+00 0.  1.
      99926    2    1    2    0    0  0.00000000000E+00  0.00000000000E+00 -0.40306039067E+03  0.60561728881E+03  0.45201174982E+03 0.  0.
      99925    2    3    3    0    0 -0.88901325943E+02  0.40483255600E+02 -0.32292347545E+03  0.42782028934E+03  0.26307468377E+03 0.  0.
         25    1    4    4    0    0 -0.71895070526E+02  0.52779110509E+02 -0.16972950786E+03  0.22893263116E+03  0.12509000000E+03 0.  0.
         25    1    3    3    0    0  0.88901325943E+02 -0.40483255600E+02 -0.80136915220E+02  0.17779699947E+03  0.12509000000E+03 0.  0.
         25    1    4    4    0    0 -0.17006255417E+02 -0.12295854909E+02 -0.15319396759E+03  0.19888765818E+03  0.12509000000E+03 0.  0.
<mgrwt>
<rscale>  2 0.45201175E+03</rscale>
<asrwt>0</asrwt>
<pdfrwt beam="1">  1       21 0.14893890E-01 0.45201175E+03</pdfrwt>
<pdfrwt beam="2">  1       21 0.74167476E-01 0.45201175E+03</pdfrwt>
<totfact> 0.59731458E+04</totfact>
</mgrwt>
</event>
<event>
 7    0  0.4709932E-002  0.4504717E+03  0.7546771E-02  0.1027581E+00
         21   -1    0    0  502  501  0.00000000000E+00  0.00000000000E+00  0.22474579257E+04  0.22474579257E+04  0.00000000000E+00 0. -1.
         21   -1    0    0  501  502 -0.00000000000E+00 -0.00000000000E+00 -0.22572702584E+02  0.22572702584E+02  0.00000000000E+00 0. -1.
      99926    2    1    2    0    0  0.00000000000E+00  0.35527136788E-14  0.22248852231E+04  0.22700306283E+04  0.45047174974E+03 0.  0.
      99925    2    3    3    0    0 -0.94772572768E+02 -0.24176829111E+02  0.16471235147E+04  0.16708457992E+04  0.26295142584E+03 0.  0.
         25    1    4    4    0    0 -0.65208568257E+02 -0.32335902976E+02  0.10547379295E+04  0.10646207663E+04  0.12509000000E+03 0.  0.
         25    1    4    4    0    0 -0.29564004510E+02  0.81590738650E+01  0.59238558524E+03  0.60622503292E+03  0.12509000000E+03 0.  0.
         25    1    3    3    0    0  0.94772572768E+02  0.24176829111E+02  0.57776170839E+03  0.59918482908E+03  0.12509000000E+03 0.  0.
<mgrwt>
<rscale>  2 0.45047175E+03</rscale>
<asrwt>0</asrwt>
<pdfrwt beam="1">  1       21 0.33050836E+00 0.45047175E+03</pdfrwt>
<pdfrwt beam="2">  1       21 0.33195166E-02 0.45047175E+03</pdfrwt>
<totfact> 0.10132518E+04</totfact>
</mgrwt>
</event>
<event>
 6    0  0.4709932E-002  0.9269613E+03  0.7546771E-02  0.9392492E-01
         21   -1    0    0  502  501  0.00000000000E+00  0.00000000000E+00  0.53737465159E+03  0.53737465159E+03  0.00000000000E+00 0. -1.
         21   -1    0    0  501  502 -0.00000000000E+00 -0.00000000000E+00 -0.39974778396E+03  0.39974778396E+03  0.00000000000E+00 0. -1.
      99925    2    1    2    0    0 -0.17726240344E+03 -0.31414396287E+03 -0.13680939042E+03  0.46694038898E+03  0.26307437821E+03 0.  0.
         25    1    1    2    0    0  0.17726240344E+03  0.31414396287E+03  0.27443625805E+03  0.47018204657E+03  0.12509000000E+03 0.  0.
         25    1    3    3    0    0 -0.11635064336E+03 -0.19176963039E+03 -0.11127245520E+03  0.27989664295E+03  0.12509000000E+03 0.  0.
         25    1    3    3    0    0 -0.60911760084E+02 -0.12237433248E+03 -0.25536935222E+02  0.18704374603E+03  0.12509000000E+03 0.  0.
<mgrwt>
<rscale>  2 0.92696133E+03</rscale>
<asrwt>0</asrwt>
<pdfrwt beam="1">  1       21 0.79025684E-01 0.92696133E+03</pdfrwt>
<pdfrwt beam="2">  1       21 0.58786439E-01 0.92696133E+03</pdfrwt>
<totfact> 0.29894432E+03</totfact>
</mgrwt>
</event>
<event>
 7    0  0.4709932E-002  0.4529520E+03  0.7546771E-02  0.1026845E+00
         21   -1    0    0  502  501  0.00000000000E+00  0.00000000000E+00  0.19407287712E+03  0.19407287712E+03  0.00000000000E+00 0. -1.
         21   -1    0    0  501  502 -0.00000000000E+00 -0.00000000000E+00 -0.26428924138E+03  0.26428924138E+03  0.00000000000E+00 0. -1.
      99926    2    1    2    0    0  0.00000000000E+00  0.00000000000E+00 -0.70216364258E+02  0.45836211850E+03  0.45295197744E+03 0.  0.
      99925    2    3    3    0    0  0.44838114175E+02  0.25600923580E+02  0.55397066055E+02  0.27372164150E+03  0.26303771275E+03 0.  0.
         25    1    4    4    0    0  0.12118642971E+02  0.40589988393E+02  0.56266866760E+02  0.14355443936E+03  0.12509000000E+03 0.  0.
         25    1    3    3    0    0 -0.44838114175E+02 -0.25600923580E+02 -0.12561343031E+03  0.18464047700E+03  0.12509000000E+03 0.  0.
         25    1    4    4    0    0  0.32719471204E+02 -0.14989064812E+02 -0.86980070574E+00  0.13016720214E+03  0.12509000000E+03 0.  0.
<mgrwt>
<rscale>  2 0.45295198E+03</rscale>
<asrwt>0</asrwt>
<pdfrwt beam="1">  1       21 0.28540129E-01 0.45295198E+03</pdfrwt>
<pdfrwt beam="2">  1       21 0.38866065E-01 0.45295198E+03</pdfrwt>
<totfact> 0.69427067E+04</totfact>
</mgrwt>
</event>
<event>
 7    0  0.4709932E-002  0.4568026E+03  0.7546771E-02  0.1025713E+00
         21   -1    0    0  502  501  0.00000000000E+00  0.00000000000E+00  0.89578406591E+03  0.89578406591E+03  0.00000000000E+00 0. -1.
         21   -1    0    0  501  502 -0.00000000000E+00 -0.00000000000E+00 -0.58236303154E+02  0.58236303154E+02  0.00000000000E+00 0. -1.
      99926    2    1    2    0    0  0.14210854715E-13  0.71054273576E-14  0.83754776276E+03  0.95402036906E+03  0.45680259379E+03 0.  0.
      99925    2    3    3    0    0  0.97459570145E+02  0.38577564093E+02  0.62361210220E+03  0.68494311023E+03  0.26318893209E+03 0.  0.
         25    1    4    4    0    0  0.73457439877E+02  0.38790863251E+02  0.26788987138E+03  0.30710457149E+03  0.12509000000E+03 0.  0.
         25    1    4    4    0    0  0.24002130268E+02 -0.21329915785E+00  0.35572223082E+03  0.37783853873E+03  0.12509000000E+03 0.  0.
         25    1    3    3    0    0 -0.97459570145E+02 -0.38577564093E+02  0.21393566056E+03  0.26907725884E+03  0.12509000000E+03 0.  0.
<mgrwt>
<rscale>  2 0.45680259E+03</rscale>
<asrwt>0</asrwt>
<pdfrwt beam="1">  1       21 0.13173294E+00 0.45680259E+03</pdfrwt>
<pdfrwt beam="2">  1       21 0.85641628E-02 0.45680259E+03</pdfrwt>
<totfact> 0.40405903E+04</totfact>
</mgrwt>
</event>
<event>
 7    0  0.4709932E-002  0.4588982E+03  0.7546771E-02  0.1025101E+00
         21   -1    0    0  502  501  0.00000000000E+00  0.00000000000E+00  0.12878061436E+03  0.12878061436E+03  0.00000000000E+00 0. -1.
         21   -1    0    0  501  502 -0.00000000000E+00 -0.00000000000E+00 -0.40881073338E+03  0.40881073338E+03  0.00000000000E+00 0. -1.
      99926    2    1    2    0    0  0.00000000000E+00  0.00000000000E+00 -0.28003011902E+03  0.53759134774E+03  0.45889823449E+03 0.  0.
      99925    2    3    3    0    0  0.68422476484E+02  0.41121746184E+02 -0.75700321419E+02  0.28506252249E+03  0.26297807850E+03 0.  0.
         25    1    4    4    0    0  0.81134703382E+01 -0.46352464039E+00 -0.60848308470E+02  0.13934155159E+03  0.12509000000E+03 0.  0.
         25    1    3    3    0    0 -0.68422476484E+02 -0.41121746184E+02 -0.20432979760E+03  0.25252882525E+03  0.12509000000E+03 0.  0.
         25    1    4    4    0    0  0.60309006146E+02  0.41585270825E+02 -0.14852012949E+02  0.14572097090E+03  0.12509000000E+03 0.  0.
<mgrwt>
<rscale>  2 0.45889823E+03</rscale>
<asrwt>0</asrwt>
<pdfrwt beam="1">  1       21 0.18938326E-01 0.45889823E+03</pdfrwt>
<pdfrwt beam="2">  1       21 0.60119224E-01 0.45889823E+03</pdfrwt>
<totfact> 0.60795477E+04</totfact>
</mgrwt>
</event>
<event>
 7    0  0.4709932E-002  0.4537209E+03  0.7546771E-02  0.1026618E+00
         21   -1    0    0  502  501  0.00000000000E+00  0.00000000000E+00  0.16371950343E+04  0.16371950343E+04  0.00000000000E+00 0.  1.
         21   -1    0    0  501  502 -0.00000000000E+00 -0.00000000000E+00 -0.31435271725E+02  0.31435271725E+02  0.00000000000E+00 0.  1.
      99926    2    1    2    0    0  0.00000000000E+00  0.00000000000E+00  0.16057597626E+04  0.16686303060E+04  0.45372093084E+03 0.  0.
      99925    2    3    3    0    0  0.68545593425E+02  0.68266609191E+02  0.12196035934E+04  0.12513499166E+04  0.26283999016E+03 0.  0.
         25    1    3    3    0    0 -0.68545593425E+02 -0.68266609191E+02  0.38615616919E+03  0.41728038944E+03  0.12509000000E+03 0.  0.
         25    1    4    4    0    0  0.38648991832E+02  0.63992977104E+02  0.77115128283E+03  0.78479975458E+03  0.12509000000E+03 0.  0.
         25    1    4    4    0    0  0.29896601593E+02  0.42736320875E+01  0.44845231056E+03  0.46655016201E+03  0.12509000000E+03 0.  0.
<mgrwt>
<rscale>  2 0.45372093E+03</rscale>
<asrwt>0</asrwt>
<pdfrwt beam="1">  1       21 0.24076392E+00 0.45372093E+03</pdfrwt>
<pdfrwt beam="2">  1       21 0.46228352E-02 0.45372093E+03</pdfrwt>
<totfact> 0.20121541E+04</totfact>
</mgrwt>
</event>
<event>
 7    0  0.4709932E-002  0.4476692E+03  0.7546771E-02  0.1028419E+00
         21   -1    0    0  502  501  0.00000000000E+00  0.00000000000E+00  0.55204556296E+02  0.55204556296E+02  0.00000000000E+00 0.  1.
         21   -1    0    0  501  502 -0.00000000000E+00 -0.00000000000E+00 -0.90756882536E+03  0.90756882536E+03  0.00000000000E+00 0.  1.
      99926    2    1    2    0    0  0.11102230246E-15  0.17763568394E-14 -0.85236426907E+03  0.96277338166E+03  0.44766922750E+03 0.  0.
      99925    2    3    3    0    0  0.55660132825E+00 -0.90272048823E+01 -0.31238090125E+03  0.40841668615E+03  0.26294592948E+03 0.  0.
         25    1    4    4    0    0  0.40191755475E+00 -0.28297330783E+02 -0.20799931682E+03  0.24436064406E+03  0.12509000000E+03 0.  0.
         25    1    4    4    0    0  0.15468377350E+00  0.19270125900E+02 -0.10438158443E+03  0.16405604209E+03  0.12509000000E+03 0.  0.
         25    1    3    3    0    0 -0.55660132825E+00  0.90272048823E+01 -0.53998336782E+03  0.55435669551E+03  0.12509000000E+03 0.  0.
<mgrwt>
<rscale>  2 0.44766923E+03</rscale>
<asrwt>0</asrwt>
<pdfrwt beam="1">  1       21 0.81183169E-02 0.44766923E+03</pdfrwt>
<pdfrwt beam="2">  1       21 0.13346601E+00 0.44766923E+03</pdfrwt>
<totfact> 0.43042457E+04</totfact>
</mgrwt>
</event>
<event>
 7    0  0.4709932E-002  0.4599180E+03  0.7546771E-02  0.1024805E+00
         21   -1    0    0  502  501  0.00000000000E+00  0.00000000000E+00  0.31236978334E+03  0.31236978334E+03  0.00000000000E+00 0. -1.
         21   -1    0    0  501  502 -0.00000000000E+00 -0.00000000000E+00 -0.16929018376E+03  0.16929018376E+03  0.00000000000E+00 0. -1.
      99926    2    1    2    0    0  0.71054273576E-14  0.14210854715E-13  0.14307959958E+03  0.48165996709E+03  0.45991798409E+03 0.  0.
      99925    2    3    3    0    0 -0.50332506171E+02 -0.90719642610E+02  0.31557511168E+02  0.28456075594E+03  0.26308845010E+03 0.  0.
         25    1    3    3    0    0  0.50332506171E+02  0.90719642610E+02  0.11152208841E+03  0.19709921115E+03  0.12509000000E+03 0.  0.
         25    1    4    4    0    0 -0.60278872871E+02 -0.46360455973E+02 -0.52008353536E+01  0.14648341606E+03  0.12509000000E+03 0.  0.
         25    1    4    4    0    0  0.99463667000E+01 -0.44359186637E+02  0.36758346521E+02  0.13807733988E+03  0.12509000000E+03 0.  0.
<mgrwt>
<rscale>  2 0.45991798E+03</rscale>
<asrwt>0</asrwt>
<pdfrwt beam="1">  1       21 0.45936733E-01 0.45991798E+03</pdfrwt>
<pdfrwt beam="2">  1       21 0.24895615E-01 0.45991798E+03</pdfrwt>
<totfact> 0.64042830E+04</totfact>
</mgrwt>
</event>
<event>
 7    0  0.4709932E-002  0.4533269E+03  0.7546771E-02  0.1026735E+00
         21   -1    0    0  502  501  0.00000000000E+00  0.00000000000E+00  0.12137482457E+03  0.12137482457E+03  0.00000000000E+00 0.  1.
         21   -1    0    0  501  502 -0.00000000000E+00 -0.00000000000E+00 -0.42328651986E+03  0.42328651986E+03  0.00000000000E+00 0.  1.
      99926    2    1    2    0    0  0.00000000000E+00  0.00000000000E+00 -0.30191169529E+03  0.54466134443E+03  0.45332693320E+03 0.  0.
      99925    2    3    3    0    0 -0.40677828027E+02 -0.99483371020E+02 -0.22666394836E+03  0.36338432349E+03  0.26290681671E+03 0.  0.
         25    1    3    3    0    0  0.40677828027E+02  0.99483371020E+02 -0.75247746930E+02  0.18127702094E+03  0.12509000000E+03 0.  0.
         25    1    4    4    0    0 -0.35814071011E+02 -0.90285553708E+02 -0.12089659301E+03  0.19924262393E+03  0.12509000000E+03 0.  0.
         25    1    4    4    0    0 -0.48637570169E+01 -0.91978173114E+01 -0.10576735535E+03  0.16414169956E+03  0.12509000000E+03 0.  0.
<mgrwt>
<rscale>  2 0.45332693E+03</rscale>
<asrwt>0</asrwt>
<pdfrwt beam="1">  1       21 0.17849239E-01 0.45332693E+03</pdfrwt>
<pdfrwt beam="2">  1       21 0.62248016E-01 0.45332693E+03</pdfrwt>
<totfact> 0.63051272E+04</totfact>
</mgrwt>
</event>
<event>
 7    0  0.4709932E-002  0.4553613E+03  0.7546771E-02  0.1026135E+00
         21   -1    0    0  502  501  0.00000000000E+00  0.00000000000E+00  0.18890848286E+03  0.18890848286E+03  0.00000000000E+00 0. -1.
         21   -1    0    0  501  502 -0.00000000000E+00 -0.00000000000E+00 -0.27441056998E+03  0.27441056998E+03  0.00000000000E+00 0. -1.
      99926    2    1    2    0    0  0.14210854715E-13  0.00000000000E+00 -0.85502087116E+02  0.46331905283E+03  0.45536132666E+03 0.  0.
      99925    2    3    3    0    0 -0.85102823300E+02 -0.38285578252E+02 -0.11934958367E+03  0.30362735875E+03  0.26312919607E+03 0.  0.
         25    1    4    4    0    0 -0.32725516096E+02 -0.45847778722E+02 -0.91713073152E+02  0.16502052631E+03  0.12509000000E+03 0.  0.
         25    1    4    4    0    0 -0.52377307203E+02  0.75622004701E+01 -0.27636510516E+02  0.13860683244E+03  0.12509000000E+03 0.  0.
         25    1    3    3    0    0  0.85102823300E+02  0.38285578252E+02  0.33847496552E+02  0.15969169408E+03  0.12509000000E+03 0.  0.
<mgrwt>
<rscale>  2 0.45536133E+03</rscale>
<asrwt>0</asrwt>
<pdfrwt beam="1">  1       21 0.27780660E-01 0.45536133E+03</pdfrwt>
<pdfrwt beam="2">  1       21 0.40354495E-01 0.45536133E+03</pdfrwt>
<totfact> 0.67740343E+04</totfact>
</mgrwt>
</event>
<event>
 7    0  0.4709932E-002  0.4588540E+03  0.7546771E-02  0.1025114E+00
         21   -1    0    0  502  501  0.00000000000E+00  0.00000000000E+00  0.48220010039E+02  0.48220010039E+02  0.00000000000E+00 0. -1.
         21   -1    0    0  501  502 -0.00000000000E+00 -0.00000000000E+00 -0.10915953415E+04  0.10915953415E+04  0.00000000000E+00 0. -1.
      99926    2    1    2    0    0  0.00000000000E+00  0.00000000000E+00 -0.10433753315E+04  0.11398153516E+04  0.45885395641E+03 0.  0.
      99925    2    3    3    0    0  0.46369860589E+02 -0.75942495352E+02 -0.46646505611E+03  0.54283092923E+03  0.26297973798E+03 0.  0.
         25    1    4    4    0    0 -0.57776921032E+01 -0.53401346282E+02 -0.27869464039E+03  0.31016656201E+03  0.12509000000E+03 0.  0.
         25    1    4    4    0    0  0.52147552692E+02 -0.22541149070E+02 -0.18777041572E+03  0.23266436722E+03  0.12509000000E+03 0.  0.
         25    1    3    3    0    0 -0.46369860589E+02  0.75942495352E+02 -0.57691027540E+03  0.59698442236E+03  0.12509000000E+03 0.  0.
<mgrwt>
<rscale>  2 0.45885396E+03</rscale>
<asrwt>0</asrwt>
<pdfrwt beam="1">  1       21 0.70911784E-02 0.45885396E+03</pdfrwt>
<pdfrwt beam="2">  1       21 0.16052872E+00 0.45885396E+03</pdfrwt>
<totfact> 0.33118141E+04</totfact>
</mgrwt>
</event>
<event>
 7    0  0.4709932E-002  0.4533783E+03  0.7546771E-02  0.1026719E+00
         21   -1    0    0  502  501  0.00000000000E+00  0.00000000000E+00  0.11576749633E+03  0.11576749633E+03  0.00000000000E+00 0. -1.
         21   -1    0    0  501  502 -0.00000000000E+00 -0.00000000000E+00 -0.44388947664E+03  0.44388947664E+03  0.00000000000E+00 0. -1.
      99926    2    1    2    0    0  0.00000000000E+00  0.00000000000E+00 -0.32812198031E+03  0.55965697297E+03  0.45337831160E+03 0.  0.
      99925    2    3    3    0    0 -0.76989496850E+02  0.11377585182E+02 -0.30557585423E+03  0.41061782385E+03  0.26300867382E+03 0.  0.
         25    1    4    4    0    0  0.25076721153E+01  0.15086311255E+02 -0.14024467771E+03  0.18854697805E+03  0.12509000000E+03 0.  0.
         25    1    4    4    0    0 -0.79497168965E+02 -0.37087260735E+01 -0.16533117652E+03  0.22207084579E+03  0.12509000000E+03 0.  0.
         25    1    3    3    0    0  0.76989496850E+02 -0.11377585182E+02 -0.22546126076E+02  0.14903914912E+03  0.12509000000E+03 0.  0.
<mgrwt>
<rscale>  2 0.45337831E+03</rscale>
<asrwt>0</asrwt>
<pdfrwt beam="1">  1       21 0.17024632E-01 0.45337831E+03</pdfrwt>
<pdfrwt beam="2">  1       21 0.65277865E-01 0.45337831E+03</pdfrwt>
<totfact> 0.62024642E+04</totfact>
</mgrwt>
</event>
<event>
 7    0  0.4709932E-002  0.4517560E+03  0.7546771E-02  0.1027200E+00
         21   -1    0    0  502  501  0.00000000000E+00  0.00000000000E+00  0.65847542564E+03  0.65847542564E+03  0.00000000000E+00 0. -1.
         21   -1    0    0  501  502 -0.00000000000E+00 -0.00000000000E+00 -0.77483316936E+02  0.77483316936E+02  0.00000000000E+00 0. -1.
      99926    2    1    2    0    0  0.00000000000E+00  0.00000000000E+00  0.58099210870E+03  0.73595874257E+03  0.45175595225E+03 0.  0.
      99925    2    3    3    0    0  0.10936815430E+03 -0.36865095841E+01  0.38452712710E+03  0.47862436744E+03  0.26314480825E+03 0.  0.
         25    1    4    4    0    0  0.77213425006E+02  0.14271570135E+02  0.15140363191E+03  0.21150923992E+03  0.12509000000E+03 0.  0.
         25    1    4    4    0    0  0.32154729291E+02 -0.17958079719E+02  0.23312349519E+03  0.26711512753E+03  0.12509000000E+03 0.  0.
         25    1    3    3    0    0 -0.10936815430E+03  0.36865095841E+01  0.19646498160E+03  0.25733437513E+03  0.12509000000E+03 0.  0.
<mgrwt>
<rscale>  2 0.45175595E+03</rscale>
<asrwt>0</asrwt>
<pdfrwt beam="1">  1       21 0.96834618E-01 0.45175595E+03</pdfrwt>
<pdfrwt beam="2">  1       21 0.11394606E-01 0.45175595E+03</pdfrwt>
<totfact> 0.52315371E+04</totfact>
</mgrwt>
</event>
<event>
 7    0  0.4709932E-002  0.4599085E+03  0.7546771E-02  0.1024808E+00
         21   -1    0    0  502  501  0.00000000000E+00  0.00000000000E+00  0.15194370240E+03  0.15194370240E+03  0.00000000000E+00 0. -1.
         21   -1    0    0  501  502 -0.00000000000E+00 -0.00000000000E+00 -0.34801683609E+03  0.34801683609E+03  0.00000000000E+00 0. -1.
      99926    2    1    2    0    0  0.00000000000E+00 -0.35527136788E-14 -0.19607313369E+03  0.49996053849E+03  0.45990854122E+03 0.  0.
      99925    2    3    3    0    0  0.36770678205E+02  0.16046836292E+02 -0.23321783193E+01  0.26588224044E+03  0.26282759177E+03 0.  0.
         25    1    4    4    0    0 -0.16486284360E+02 -0.56558836617E+01  0.14721653176E+02  0.12715353618E+03  0.12509000000E+03 0.  0.
         25    1    3    3    0    0 -0.36770678205E+02 -0.16046836292E+02 -0.19374095537E+03  0.23407829805E+03  0.12509000000E+03 0.  0.
         25    1    4    4    0    0  0.53256962565E+02  0.21702719954E+02 -0.17053831495E+02  0.13872870425E+03  0.12509000000E+03 0.  0.
<mgrwt>
<rscale>  2 0.45990854E+03</rscale>
<asrwt>0</asrwt>
<pdfrwt beam="1">  1       21 0.22344662E-01 0.45990854E+03</pdfrwt>
<pdfrwt beam="2">  1       21 0.51178946E-01 0.45990854E+03</pdfrwt>
<totfact> 0.62790842E+04</totfact>
</mgrwt>
</event>
<event>
 7    0  0.4709932E-002  0.4574607E+03  0.7546771E-02  0.1025520E+00
         21   -1    0    0  502  501  0.00000000000E+00  0.00000000000E+00  0.74539504377E+02  0.74539504377E+02  0.00000000000E+00 0. -1.
         21   -1    0    0  501  502 -0.00000000000E+00 -0.00000000000E+00 -0.70187703161E+03  0.70187703161E+03  0.00000000000E+00 0. -1.
      99926    2    1    2    0    0  0.00000000000E+00  0.00000000000E+00 -0.62733752723E+03  0.77641653598E+03  0.45746066965E+03 0.  0.
      99925    2    3    3    0    0 -0.89673116490E+02 -0.71089655104E+02 -0.36821534745E+03  0.46676056714E+03  0.26303588740E+03 0.  0.
         25    1    3    3    0    0  0.89673116490E+02  0.71089655104E+02 -0.25912217978E+03  0.30965596884E+03  0.12509000000E+03 0.  0.
         25    1    4    4    0    0 -0.59922929045E+02 -0.41428100672E+02 -0.13060001564E+03  0.19496388675E+03  0.12509000000E+03 0.  0.
         25    1    4    4    0    0 -0.29750187445E+02 -0.29661554432E+02 -0.23761533180E+03  0.27179668039E+03  0.12509000000E+03 0.  0.
<mgrwt>
<rscale>  2 0.45746067E+03</rscale>
<asrwt>0</asrwt>
<pdfrwt beam="1">  1       21 0.10961692E-01 0.45746067E+03</pdfrwt>
<pdfrwt beam="2">  1       21 0.10321721E+00 0.45746067E+03</pdfrwt>
<totfact> 0.47992974E+04</totfact>
</mgrwt>
</event>
<event>
 7    0  0.4709932E-002  0.4488803E+03  0.7546771E-02  0.1028056E+00
         21   -1    0    0  502  501  0.00000000000E+00  0.00000000000E+00  0.14916417279E+03  0.14916417279E+03  0.00000000000E+00 0.  1.
         21   -1    0    0  501  502 -0.00000000000E+00 -0.00000000000E+00 -0.33770432905E+03  0.33770432905E+03  0.00000000000E+00 0.  1.
      99926    2    1    2    0    0  0.00000000000E+00  0.00000000000E+00 -0.18854015626E+03  0.48686850185E+03  0.44888032655E+03 0.  0.
      99925    2    3    3    0    0  0.65907930478E+02  0.72143105578E+02 -0.16747855952E+03  0.32674485606E+03  0.26299173006E+03 0.  0.
         25    1    4    4    0    0  0.23624729311E+01  0.55256296558E+02 -0.10402101437E+03  0.17183340513E+03  0.12509000000E+03 0.  0.
         25    1    3    3    0    0 -0.65907930478E+02 -0.72143105578E+02 -0.21061596745E+02  0.16012364579E+03  0.12509000000E+03 0.  0.
         25    1    4    4    0    0  0.63545457547E+02  0.16886809019E+02 -0.63457545144E+02  0.15491145093E+03  0.12509000000E+03 0.  0.
<mgrwt>
<rscale>  2 0.44888033E+03</rscale>
<asrwt>0</asrwt>
<pdfrwt beam="1">  1       21 0.21935908E-01 0.44888033E+03</pdfrwt>
<pdfrwt beam="2">  1       21 0.49662401E-01 0.44888033E+03</pdfrwt>
<totfact> 0.69519952E+04</totfact>
</mgrwt>
</event>
<event>
 7    0  0.4709932E-002  0.4573213E+03  0.7546771E-02  0.1025561E+00
         21   -1    0    0  502  501  0.00000000000E+00  0.00000000000E+00  0.29825558839E+03  0.29825558839E+03  0.00000000000E+00 0.  1.
         21   -1    0    0  501  502 -0.00000000000E+00 -0.00000000000E+00 -0.17530501734E+03  0.17530501734E+03  0.00000000000E+00 0.  1.
      99926    2    1    2    0    0 -0.14210854715E-13 -0.35527136788E-14  0.12295057106E+03  0.47356060573E+03  0.45732133602E+03 0.  0.
      99925    2    3    3    0    0  0.88848768359E+02  0.66051136603E+01  0.13588007783E+01  0.27767850378E+03  0.26299386677E+03 0.  0.
         25    1    4    4    0    0  0.33886378191E+02 -0.26662625265E+02  0.26187315218E+02  0.13487944911E+03  0.12509000000E+03 0.  0.
         25    1    4    4    0    0  0.54962390167E+02  0.33267738925E+02 -0.24828514439E+02  0.14279905467E+03  0.12509000000E+03 0.  0.
         25    1    3    3    0    0 -0.88848768359E+02 -0.66051136603E+01  0.12159177028E+03  0.19588210195E+03  0.12509000000E+03 0.  0.
<mgrwt>
<rscale>  2 0.45732134E+03</rscale>
<asrwt>0</asrwt>
<pdfrwt beam="1">  1       21 0.43861116E-01 0.45732134E+03</pdfrwt>
<pdfrwt beam="2">  1       21 0.25780150E-01 0.45732134E+03</pdfrwt>
<totfact> 0.65948884E+04</totfact>
</mgrwt>
</event>
<event>
 7    0  0.4709932E-002  0.4590294E+03  0.7546771E-02  0.1025063E+00
         21   -1    0    0  502  501  0.00000000000E+00  0.00000000000E+00  0.13295269663E+03  0.13295269663E+03  0.00000000000E+00 0. -1.
         21   -1    0    0  501  502 -0.00000000000E+00 -0.00000000000E+00 -0.39620853074E+03  0.39620853074E+03  0.00000000000E+00 0. -1.
      99926    2    1    2    0    0  0.00000000000E+00  0.00000000000E+00 -0.26325583411E+03  0.52916122738E+03  0.45902937854E+03 0.  0.
      99925    2    3    3    0    0 -0.63191826259E+02  0.92861963546E+02 -0.20246186601E+03  0.35038772308E+03  0.26299087079E+03 0.  0.
         25    1    3    3    0    0  0.63191826259E+02 -0.92861963546E+02 -0.60793968100E+02  0.17877350429E+03  0.12509000000E+03 0.  0.
         25    1    4    4    0    0 -0.10285183070E+02  0.20055307971E+02 -0.12354603958E+03  0.17725442834E+03  0.12509000000E+03 0.  0.
         25    1    4    4    0    0 -0.52906643189E+02  0.72806655575E+02 -0.78915826424E+02  0.17313329475E+03  0.12509000000E+03 0.  0.
<mgrwt>
<rscale>  2 0.45902938E+03</rscale>
<asrwt>0</asrwt>
<pdfrwt beam="1">  1       21 0.19551868E-01 0.45902938E+03</pdfrwt>
<pdfrwt beam="2">  1       21 0.58265959E-01 0.45902938E+03</pdfrwt>
<totfact> 0.61282470E+04</totfact>
</mgrwt>
</event>
<event>
 7    0  0.4709932E-002  0.4309546E+03  0.7546771E-02  0.1033559E+00
         21   -1    0    0  502  501  0.00000000000E+00  0.00000000000E+00  0.72465645161E+02  0.72465645161E+02  0.00000000000E+00 0.  1.
         21   -1    0    0  501  502 -0.00000000000E+00 -0.00000000000E+00 -0.64072390858E+03  0.64072390858E+03  0.00000000000E+00 0.  1.
      99926    2    1    2    0    0  0.00000000000E+00  0.35527136788E-14 -0.56825826341E+03  0.71318955374E+03  0.43095462130E+03 0.  0.
      99925    2    3    3    0    0  0.79417268526E+02 -0.25014683376E+02 -0.41629651527E+03  0.49947779008E+03  0.26313957748E+03 0.  0.
         25    1    4    4    0    0  0.34132785527E+02 -0.33192096222E+02 -0.27135645326E+03  0.30256998384E+03  0.12509000000E+03 0.  0.
         25    1    4    4    0    0  0.45284482999E+02  0.81774128465E+01 -0.14494006202E+03  0.19690780624E+03  0.12509000000E+03 0.  0.
         25    1    3    3    0    0 -0.79417268526E+02  0.25014683376E+02 -0.15196174814E+03  0.21371176365E+03  0.12509000000E+03 0.  0.
<mgrwt>
<rscale>  2 0.43095462E+03</rscale>
<asrwt>0</asrwt>
<pdfrwt beam="1">  1       21 0.10656713E-01 0.43095462E+03</pdfrwt>
<pdfrwt beam="2">  1       21 0.94224102E-01 0.43095462E+03</pdfrwt>
<totfact> 0.63352816E+04</totfact>
</mgrwt>
</event>
<event>
 7    0  0.4709932E-002  0.4549999E+03  0.7546771E-02  0.1026241E+00
         21   -1    0    0  502  501  0.00000000000E+00  0.00000000000E+00  0.10117587308E+03  0.10117587308E+03  0.00000000000E+00 0. -1.
         21   -1    0    0  501  502 -0.00000000000E+00 -0.00000000000E+00 -0.51154703898E+03  0.51154703898E+03  0.00000000000E+00 0. -1.
      99926    2    1    2    0    0  0.00000000000E+00  0.00000000000E+00 -0.41037116590E+03  0.61272291206E+03  0.45499986061E+03 0.  0.
      99925    2    3    3    0    0 -0.70448384286E+02  0.76713999224E+02 -0.31778333770E+03  0.42545832235E+03  0.26302190368E+03 0.  0.
         25    1    3    3    0    0  0.70448384286E+02 -0.76713999224E+02 -0.92587828206E+02  0.18726458970E+03  0.12509000000E+03 0.  0.
         25    1    4    4    0    0 -0.72376788028E+02  0.35849736662E+02 -0.14101461796E+03  0.20507616546E+03  0.12509000000E+03 0.  0.
         25    1    4    4    0    0  0.19284037418E+01  0.40864262561E+02 -0.17676871974E+03  0.22038215689E+03  0.12509000000E+03 0.  0.
<mgrwt>
<rscale>  2 0.45499986E+03</rscale>
<asrwt>0</asrwt>
<pdfrwt beam="1">  1       21 0.14878805E-01 0.45499986E+03</pdfrwt>
<pdfrwt beam="2">  1       21 0.75227506E-01 0.45499986E+03</pdfrwt>
<totfact> 0.57901961E+04</totfact>
</mgrwt>
</event>
<event>
 7    0  0.4709932E-002  0.4452131E+03  0.7546771E-02  0.1029159E+00
         21   -1    0    0  502  501  0.00000000000E+00  0.00000000000E+00  0.59200112535E+02  0.59200112535E+02  0.00000000000E+00 0.  1.
         21   -1    0    0  501  502 -0.00000000000E+00 -0.00000000000E+00 -0.83705386310E+03  0.83705386310E+03  0.00000000000E+00 0.  1.
      99926    2    1    2    0    0  0.00000000000E+00  0.00000000000E+00 -0.77785375057E+03  0.89625397564E+03  0.44521313050E+03 0.  0.
      99925    2    3    3    0    0 -0.24841058931E+02 -0.59520357154E+02 -0.65708544575E+03  0.71080251926E+03  0.26328537225E+03 0.  0.
         25    1    4    4    0    0  0.76588402223E+01 -0.21620067181E+02 -0.22793461721E+03  0.26101299385E+03  0.12509000000E+03 0.  0.
         25    1    4    4    0    0 -0.32499899153E+02 -0.37900289973E+02 -0.42915082854E+03  0.44978952541E+03  0.12509000000E+03 0.  0.
         25    1    3    3    0    0  0.24841058931E+02  0.59520357154E+02 -0.12076830481E+03  0.18545145638E+03  0.12509000000E+03 0.  0.
<mgrwt>
<rscale>  2 0.44521313E+03</rscale>
<asrwt>0</asrwt>
<pdfrwt beam="1">  1       21 0.87058991E-02 0.44521313E+03</pdfrwt>
<pdfrwt beam="2">  1       21 0.12309615E+00 0.44521313E+03</pdfrwt>
<totfact> 0.46885950E+04</totfact>
</mgrwt>
</event>
<event>
 6    0  0.5049179E-002  0.4273103E+03  0.7546771E-02  0.1034713E+00
         21   -1    0    0  502  501  0.00000000000E+00  0.00000000000E+00  0.14194985457E+03  0.14194985457E+03  0.00000000000E+00 0.  1.
         21   -1    0    0  501  502 -0.00000000000E+00 -0.00000000000E+00 -0.32158208053E+03  0.32158208053E+03  0.00000000000E+00 0.  1.
      99926    2    1    2    0    0  0.00000000000E+00  0.00000000000E+00 -0.17963222596E+03  0.46353193511E+03  0.42731033016E+03 0.  0.
         25    1    3    3    0    0 -0.10606917834E+02  0.23349791218E+01 -0.97052645879E+02  0.15869682733E+03  0.12509000000E+03 0.  0.
         25    1    3    3    0    0 -0.45846731369E+02  0.55198093591E+02 -0.32521385079E+02  0.14783064940E+03  0.12509000000E+03 0.  0.
         25    1    3    3    0    0  0.56453649203E+02 -0.57533072713E+02 -0.50058195000E+02  0.15700445838E+03  0.12509000000E+03 0.  0.
<mgrwt>
<rscale>  2 0.42731033E+03</rscale>
<asrwt>0</asrwt>
<pdfrwt beam="1">  1       21 0.20874979E-01 0.42731033E+03</pdfrwt>
<pdfrwt beam="2">  1       21 0.47291483E-01 0.42731033E+03</pdfrwt>
<totfact> 0.85149748E+04</totfact>
</mgrwt>
</event>
<event>
 7    0  0.4709932E-002  0.4526753E+03  0.7546771E-02  0.1026927E+00
         21   -1    0    0  502  501  0.00000000000E+00  0.00000000000E+00  0.22312963510E+03  0.22312963510E+03  0.00000000000E+00 0. -1.
         21   -1    0    0  501  502 -0.00000000000E+00 -0.00000000000E+00 -0.22959179660E+03  0.22959179660E+03  0.00000000000E+00 0. -1.
      99926    2    1    2    0    0  0.71054273576E-14  0.00000000000E+00 -0.64621614988E+01  0.45272143169E+03  0.45267530879E+03 0.  0.
      99925    2    3    3    0    0 -0.34266546219E+02  0.87718781355E+02 -0.63432545954E+02  0.28610236437E+03  0.26260634840E+03 0.  0.
         25    1    4    4    0    0 -0.50329940740E+02  0.67608763406E+02 -0.42301268301E+02  0.15665552408E+03  0.12509000000E+03 0.  0.
         25    1    4    4    0    0  0.16063394521E+02  0.20110017949E+02 -0.21131277654E+02  0.12944684029E+03  0.12509000000E+03 0.  0.
         25    1    3    3    0    0  0.34266546219E+02 -0.87718781355E+02  0.56970384456E+02  0.16661906733E+03  0.12509000000E+03 0.  0.
<mgrwt>
<rscale>  2 0.45267531E+03</rscale>
<asrwt>0</asrwt>
<pdfrwt beam="1">  1       21 0.32813182E-01 0.45267531E+03</pdfrwt>
<pdfrwt beam="2">  1       21 0.33763499E-01 0.45267531E+03</pdfrwt>
<totfact> 0.70002508E+04</totfact>
</mgrwt>
</event>
<event>
 7    0  0.4709932E-002  0.4563177E+03  0.7546771E-02  0.1025855E+00
         21   -1    0    0  502  501  0.00000000000E+00  0.00000000000E+00  0.12417867945E+03  0.12417867945E+03  0.00000000000E+00 0. -1.
         21   -1    0    0  501  502 -0.00000000000E+00 -0.00000000000E+00 -0.41920612269E+03  0.41920612269E+03  0.00000000000E+00 0. -1.
      99926    2    1    2    0    0  0.00000000000E+00  0.14210854715E-13 -0.29502744324E+03  0.54338480214E+03  0.45631770833E+03 0.  0.
      99925    2    3    3    0    0 -0.65056973697E+02 -0.42353062659E+02 -0.85287852978E+02  0.28713415226E+03  0.26295591224E+03 0.  0.
         25    1    4    4    0    0 -0.61009431291E+02 -0.52175012894E+02 -0.45771376353E+02  0.15552141226E+03  0.12509000000E+03 0.  0.
         25    1    4    4    0    0 -0.40475424057E+01  0.98219502346E+01 -0.39516476625E+02  0.13161274000E+03  0.12509000000E+03 0.  0.
         25    1    3    3    0    0  0.65056973697E+02  0.42353062659E+02 -0.20973959026E+03  0.25625064988E+03  0.12509000000E+03 0.  0.
<mgrwt>
<rscale>  2 0.45631771E+03</rscale>
<asrwt>0</asrwt>
<pdfrwt beam="1">  1       21 0.18261571E-01 0.45631771E+03</pdfrwt>
<pdfrwt beam="2">  1       21 0.61647959E-01 0.45631771E+03</pdfrwt>
<totfact> 0.61660303E+04</totfact>
</mgrwt>
</event>
<event>
 7    0  0.4709932E-002  0.4484366E+03  0.7546771E-02  0.1028189E+00
         21   -1    0    0  502  501  0.00000000000E+00  0.00000000000E+00  0.17222035067E+03  0.17222035067E+03  0.00000000000E+00 0.  1.
         21   -1    0    0  501  502 -0.00000000000E+00 -0.00000000000E+00 -0.29191580749E+03  0.29191580749E+03  0.00000000000E+00 0.  1.
      99926    2    1    2    0    0  0.00000000000E+00  0.71054273576E-14 -0.11969545682E+03  0.46413615815E+03  0.44843658517E+03 0.  0.
      99925    2    3    3    0    0 -0.88865886444E+02  0.43601594918E+02 -0.11808375984E+03  0.30461076670E+03  0.26276548479E+03 0.  0.
         25    1    4    4    0    0 -0.67002389192E+01  0.20069201106E+02 -0.34013849730E+02  0.13134731100E+03  0.12509000000E+03 0.  0.
         25    1    3    3    0    0  0.88865886444E+02 -0.43601594918E+02 -0.16116969764E+01  0.15952539146E+03  0.12509000000E+03 0.  0.
         25    1    4    4    0    0 -0.82165647524E+02  0.23532393812E+02 -0.84069910113E+02  0.17326345569E+03  0.12509000000E+03 0.  0.
<mgrwt>
<rscale>  2 0.44843659E+03</rscale>
<asrwt>0</asrwt>
<pdfrwt beam="1">  1       21 0.25326523E-01 0.44843659E+03</pdfrwt>
<pdfrwt beam="2">  1       21 0.42928794E-01 0.44843659E+03</pdfrwt>
<totfact> 0.71526537E+04</totfact>
</mgrwt>
</event>
<event>
 7    0  0.4709932E-002  0.4567915E+03  0.7546771E-02  0.1025716E+00
         21   -1    0    0  502  501  0.00000000000E+00  0.00000000000E+00  0.22650099093E+03  0.22650099093E+03  0.00000000000E+00 0. -1.
         21   -1    0    0  501  502 -0.00000000000E+00 -0.00000000000E+00 -0.23030634551E+03  0.23030634551E+03  0.00000000000E+00 0. -1.
      99926    2    1    2    0    0 -0.71054273576E-14  0.00000000000E+00 -0.38053545810E+01  0.45680733644E+03  0.45679148624E+03 0.  0.
      99925    2    3    3    0    0 -0.36974899369E+02 -0.92346451093E+02  0.54422373761E+02  0.28671034452E+03  0.26333631857E+03 0.  0.
         25    1    3    3    0    0  0.36974899369E+02  0.92346451093E+02 -0.58227728342E+02  0.17009699192E+03  0.12509000000E+03 0.  0.
         25    1    4    4    0    0 -0.53169683693E+02 -0.70053112552E+02  0.38090609573E+02  0.15758444238E+03  0.12509000000E+03 0.  0.
         25    1    4    4    0    0  0.16194784324E+02 -0.22293338541E+02  0.16331764188E+02  0.12912590214E+03  0.12509000000E+03 0.  0.
<mgrwt>
<rscale>  2 0.45679149E+03</rscale>
<asrwt>0</asrwt>
<pdfrwt beam="1">  1       21 0.33308969E-01 0.45679149E+03</pdfrwt>
<pdfrwt beam="2">  1       21 0.33868580E-01 0.45679149E+03</pdfrwt>
<totfact> 0.67444358E+04</totfact>
</mgrwt>
</event>
<event>
 7    0  0.4709932E-002  0.4349279E+03  0.7546771E-02  0.1032314E+00
         21   -1    0    0  502  501  0.00000000000E+00  0.00000000000E+00  0.14513538514E+03  0.14513538514E+03  0.00000000000E+00 0.  1.
         21   -1    0    0  501  502 -0.00000000000E+00 -0.00000000000E+00 -0.32583761753E+03  0.32583761753E+03  0.00000000000E+00 0.  1.
      99926    2    1    2    0    0  0.00000000000E+00  0.00000000000E+00 -0.18070223239E+03  0.47097300268E+03  0.43492789340E+03 0.  0.
      99925    2    3    3    0    0  0.42292130309E+01  0.90538609162E+02 -0.93114111271E+02  0.29339396942E+03  0.26304877415E+03 0.  0.
         25    1    4    4    0    0  0.19755493005E+02  0.16602490823E+02 -0.69360670622E+02  0.14534212374E+03  0.12509000000E+03 0.  0.
         25    1    4    4    0    0 -0.15526279974E+02  0.73936118340E+02 -0.23753440649E+02  0.14805184567E+03  0.12509000000E+03 0.  0.
         25    1    3    3    0    0 -0.42292130309E+01 -0.90538609162E+02 -0.87588121118E+02  0.17757903326E+03  0.12509000000E+03 0.  0.
<mgrwt>
<rscale>  2 0.43492789E+03</rscale>
<asrwt>0</asrwt>
<pdfrwt beam="1">  1       21 0.21343439E-01 0.43492789E+03</pdfrwt>
<pdfrwt beam="2">  1       21 0.47917296E-01 0.43492789E+03</pdfrwt>
<totfact> 0.79258229E+04</totfact>
</mgrwt>
</event>
<event>
 7    0  0.4709932E-002  0.4470462E+03  0.7546771E-02  0.1028607E+00
         21   -1    0    0  502  501  0.00000000000E+00  0.00000000000E+00  0.39421015118E+03  0.39421015118E+03  0.00000000000E+00 0.  1.
         21   -1    0    0  501  502 -0.00000000000E+00 -0.00000000000E+00 -0.12674099279E+03  0.12674099279E+03  0.00000000000E+00 0.  1.
      99926    2    1    2    0    0  0.00000000000E+00 -0.88817841970E-15  0.26746915839E+03  0.52095114398E+03  0.44704624338E+03 0.  0.
      99925    2    3    3    0    0  0.51657500024E+02  0.54514222806E+01  0.62363375610E+02  0.27515833378E+03  0.26291577115E+03 0.  0.
         25    1    3    3    0    0 -0.51657500024E+02 -0.54514222806E+01  0.20510578278E+03  0.24579281019E+03  0.12509000000E+03 0.  0.
         25    1    4    4    0    0  0.41013770289E+01 -0.21897004650E+02  0.54759523869E+02  0.13835611176E+03  0.12509000000E+03 0.  0.
         25    1    4    4    0    0  0.47556122995E+02  0.27348426931E+02  0.76038517414E+01  0.13680222203E+03  0.12509000000E+03 0.  0.
<mgrwt>
<rscale>  2 0.44704624E+03</rscale>
<asrwt>0</asrwt>
<pdfrwt beam="1">  1       21 0.57972081E-01 0.44704624E+03</pdfrwt>
<pdfrwt beam="2">  1       21 0.18638381E-01 0.44704624E+03</pdfrwt>
<totfact> 0.68010710E+04</totfact>
</mgrwt>
</event>
<event>
 7    0  0.4709932E-002  0.4502734E+03  0.7546771E-02  0.1027641E+00
         21   -1    0    0  502  501  0.00000000000E+00  0.00000000000E+00  0.47110654692E+03  0.47110654692E+03  0.00000000000E+00 0.  1.
         21   -1    0    0  501  502 -0.00000000000E+00 -0.00000000000E+00 -0.10759038469E+03  0.10759038469E+03  0.00000000000E+00 0.  1.
      99926    2    1    2    0    0  0.00000000000E+00  0.00000000000E+00  0.36351616223E+03  0.57869693160E+03  0.45027340411E+03 0.  0.
      99925    2    3    3    0    0 -0.68096805873E+01  0.77419563887E+02  0.32723451706E+03  0.42702614833E+03  0.26311355264E+03 0.  0.
         25    1    4    4    0    0 -0.32691444102E+01  0.52719632177E+02  0.22818764086E+03  0.26553183324E+03  0.12509000000E+03 0.  0.
         25    1    3    3    0    0  0.68096805873E+01 -0.77419563887E+02  0.36281645171E+02  0.15167078327E+03  0.12509000000E+03 0.  0.
         25    1    4    4    0    0 -0.35405361771E+01  0.24699931710E+02  0.99046876200E+02  0.16149431509E+03  0.12509000000E+03 0.  0.
<mgrwt>
<rscale>  2 0.45027340E+03</rscale>
<asrwt>0</asrwt>
<pdfrwt beam="1">  1       21 0.69280374E-01 0.45027340E+03</pdfrwt>
<pdfrwt beam="2">  1       21 0.15822116E-01 0.45027340E+03</pdfrwt>
<totfact> 0.62304829E+04</totfact>
</mgrwt>
</event>
<event>
 7    0  0.4709932E-002  0.4609785E+03  0.7546771E-02  0.1024498E+00
         21   -1    0    0  502  501  0.00000000000E+00  0.00000000000E+00  0.21313252567E+04  0.21313252567E+04  0.00000000000E+00 0. -1.
         21   -1    0    0  501  502 -0.00000000000E+00 -0.00000000000E+00 -0.24925949500E+02  0.24925949500E+02  0.00000000000E+00 0. -1.
      99926    2    1    2    0    0 -0.44408920985E-15  0.00000000000E+00  0.21063993072E+04  0.21562512062E+04  0.46097854925E+03 0.  0.
      99925    2    3    3    0    0 -0.16845200019E+01  0.34317959784E+02  0.78728508710E+03  0.83077378514E+03  0.26303367414E+03 0.  0.
         25    1    4    4    0    0 -0.43361517872E+01  0.49444931396E+02  0.48359531549E+03  0.50197165330E+03  0.12509000000E+03 0.  0.
         25    1    3    3    0    0  0.16845200019E+01 -0.34317959784E+02  0.13191142201E+04  0.13254774210E+04  0.12509000000E+03 0.  0.
         25    1    4    4    0    0  0.26516317854E+01 -0.15126971612E+02  0.30368977161E+03  0.32880213184E+03  0.12509000000E+03 0.  0.
<mgrwt>
<rscale>  2 0.46097855E+03</rscale>
<asrwt>0</asrwt>
<pdfrwt beam="1">  1       21 0.31343006E+00 0.46097855E+03</pdfrwt>
<pdfrwt beam="2">  1       21 0.36655823E-02 0.46097855E+03</pdfrwt>
<totfact> 0.10811670E+04</totfact>
</mgrwt>
</event>
<event>
 7    0  0.4709932E-002  0.4684866E+03  0.7546771E-02  0.1022348E+00
         21   -1    0    0  502  501  0.00000000000E+00  0.00000000000E+00  0.15679542186E+04  0.15679542186E+04  0.00000000000E+00 0. -1.
         21   -1    0    0  501  502 -0.00000000000E+00 -0.00000000000E+00 -0.34994591625E+02  0.34994591625E+02  0.00000000000E+00 0. -1.
      99926    2    1    2    0    0  0.00000000000E+00  0.00000000000E+00  0.15329596270E+04  0.16029488102E+04  0.46848657427E+03 0.  0.
      99925    2    3    3    0    0 -0.87478587720E+02 -0.18365277268E+02  0.65199369700E+03  0.70866794574E+03  0.26291574632E+03 0.  0.
         25    1    4    4    0    0 -0.16237072621E+02 -0.38327621223E+02  0.28834161725E+03  0.31705054079E+03  0.12509000000E+03 0.  0.
         25    1    4    4    0    0 -0.71241515100E+02  0.19962343955E+02  0.36365207976E+03  0.39161740495E+03  0.12509000000E+03 0.  0.
         25    1    3    3    0    0  0.87478587720E+02  0.18365277268E+02  0.88096592999E+03  0.89428086451E+03  0.12509000000E+03 0.  0.
<mgrwt>
<rscale>  2 0.46848657E+03</rscale>
<asrwt>0</asrwt>
<pdfrwt beam="1">  1       21 0.23058146E+00 0.46848657E+03</pdfrwt>
<pdfrwt beam="2">  1       21 0.51462645E-02 0.46848657E+03</pdfrwt>
<totfact> 0.19265431E+04</totfact>
</mgrwt>
</event>
<event>
 7    0  0.4709932E-002  0.4641933E+03  0.7546771E-02  0.1023572E+00
         21   -1    0    0  502  501  0.00000000000E+00  0.00000000000E+00  0.15390205469E+04  0.15390205469E+04  0.00000000000E+00 0.  1.
         21   -1    0    0  501  502 -0.00000000000E+00 -0.00000000000E+00 -0.35002041923E+02  0.35002041923E+02  0.00000000000E+00 0.  1.
      99926    2    1    2    0    0  0.00000000000E+00  0.00000000000E+00  0.15040185050E+04  0.15740225888E+04  0.46419332913E+03 0.  0.
      99925    2    3    3    0    0 -0.46974854669E+02  0.29193865148E+02  0.57200479253E+03  0.63202684200E+03  0.26307703739E+03 0.  0.
         25    1    4    4    0    0  0.14893218316E+02  0.18160544172E+02  0.30654746074E+03  0.33191936838E+03  0.12509000000E+03 0.  0.
         25    1    3    3    0    0  0.46974854669E+02 -0.29193865148E+02  0.93201371243E+03  0.94199574680E+03  0.12509000000E+03 0.  0.
         25    1    4    4    0    0 -0.61868072985E+02  0.11033320976E+02  0.26545733178E+03  0.30010747362E+03  0.12509000000E+03 0.  0.
<mgrwt>
<rscale>  2 0.46419333E+03</rscale>
<asrwt>0</asrwt>
<pdfrwt beam="1">  1       21 0.22632651E+00 0.46419333E+03</pdfrwt>
<pdfrwt beam="2">  1       21 0.51473601E-02 0.46419333E+03</pdfrwt>
<totfact> 0.20517483E+04</totfact>
</mgrwt>
</event>
<event>
 7    0  0.4709932E-002  0.4913526E+03  0.7546771E-02  0.1016061E+00
         21   -1    0    0  502  501  0.00000000000E+00  0.00000000000E+00  0.10370445973E+03  0.10370445973E+03  0.00000000000E+00 0. -1.
         21   -1    0    0  501  502 -0.00000000000E+00 -0.00000000000E+00 -0.58200808926E+03  0.58200808926E+03  0.00000000000E+00 0. -1.
      99926    2    1    2    0    0  0.00000000000E+00  0.17763568394E-14 -0.47830362953E+03  0.68571254899E+03  0.49135255959E+03 0.  0.
      99925    2    3    3    0    0 -0.10176984666E+03  0.15879625520E+02 -0.15057076395E+03  0.32010948079E+03  0.26303851531E+03 0.  0.
         25    1    4    4    0    0 -0.83148179187E+02 -0.14484225967E+02 -0.97364273896E+02  0.17958486138E+03  0.12509000000E+03 0.  0.
         25    1    3    3    0    0  0.10176984666E+03 -0.15879625520E+02 -0.32773286558E+03  0.36560306820E+03  0.12509000000E+03 0.  0.
         25    1    4    4    0    0 -0.18621667474E+02  0.30363851488E+02 -0.53206490050E+02  0.14052461941E+03  0.12509000000E+03 0.  0.
<mgrwt>
<rscale>  2 0.49135256E+03</rscale>
<asrwt>0</asrwt>
<pdfrwt beam="1">  1       21 0.15250656E-01 0.49135256E+03</pdfrwt>
<pdfrwt beam="2">  1       21 0.85589423E-01 0.49135256E+03</pdfrwt>
<totfact> 0.40707866E+04</totfact>
</mgrwt>
</event>
<event>
 7    0  0.4709932E-002  0.4581256E+03  0.7546771E-02  0.1025326E+00
         21   -1    0    0  502  501  0.00000000000E+00  0.00000000000E+00  0.16452653493E+03  0.16452653493E+03  0.00000000000E+00 0.  1.
         21   -1    0    0  501  502 -0.00000000000E+00 -0.00000000000E+00 -0.31891376521E+03  0.31891376521E+03  0.00000000000E+00 0.  1.
      99926    2    1    2    0    0  0.14210854715E-13  0.00000000000E+00 -0.15438723028E+03  0.48344030013E+03  0.45812564534E+03 0.  0.
      99925    2    3    3    0    0  0.80119605518E+02 -0.55992466690E+02 -0.16289398800E+03  0.32446174642E+03  0.26303358350E+03 0.  0.
         25    1    4    4    0    0  0.54793621907E+02 -0.43358971102E+02 -0.12653201813E+03  0.19115491385E+03  0.12509000000E+03 0.  0.
         25    1    3    3    0    0 -0.80119605518E+02  0.55992466690E+02  0.85067577232E+01  0.15897855372E+03  0.12509000000E+03 0.  0.
         25    1    4    4    0    0  0.25325983612E+02 -0.12633495588E+02 -0.36361969865E+02  0.13330683257E+03  0.12509000000E+03 0.  0.
<mgrwt>
<rscale>  2 0.45812565E+03</rscale>
<asrwt>0</asrwt>
<pdfrwt beam="1">  1       21 0.24195079E-01 0.45812565E+03</pdfrwt>
<pdfrwt beam="2">  1       21 0.46899082E-01 0.45812565E+03</pdfrwt>
<totfact> 0.64827111E+04</totfact>
</mgrwt>
</event>
<event>
 7    0  0.4709932E-002  0.4589329E+03  0.7546771E-02  0.1025091E+00
         21   -1    0    0  502  501  0.00000000000E+00  0.00000000000E+00  0.95430356165E+03  0.95430356165E+03  0.00000000000E+00 0.  1.
         21   -1    0    0  501  502 -0.00000000000E+00 -0.00000000000E+00 -0.55176200881E+02  0.55176200881E+02  0.00000000000E+00 0.  1.
      99926    2    1    2    0    0  0.14210854715E-13 -0.14210854715E-13  0.89912736077E+03  0.10094797625E+04  0.45893287099E+03 0.  0.
      99925    2    3    3    0    0 -0.88703415376E+02  0.65637993203E+02  0.64795579712E+03  0.70796474709E+03  0.26304130103E+03 0.  0.
         25    1    4    4    0    0 -0.35070326154E+02 -0.68853680650E+01  0.32519770797E+03  0.35025475505E+03  0.12509000000E+03 0.  0.
         25    1    3    3    0    0  0.88703415376E+02 -0.65637993203E+02  0.25117156366E+03  0.30151501545E+03  0.12509000000E+03 0.  0.
         25    1    4    4    0    0 -0.53633089222E+02  0.72523361268E+02  0.32275808915E+03  0.35770999203E+03  0.12509000000E+03 0.  0.
<mgrwt>
<rscale>  2 0.45893287E+03</rscale>
<asrwt>0</asrwt>
<pdfrwt beam="1">  1       21 0.14033875E+00 0.45893287E+03</pdfrwt>
<pdfrwt beam="2">  1       21 0.81141478E-02 0.45893287E+03</pdfrwt>
<totfact> 0.37631030E+04</totfact>
</mgrwt>
</event>
<event>
 7    0  0.4709932E-002  0.4583121E+03  0.7546771E-02  0.1025272E+00
         21   -1    0    0  502  501  0.00000000000E+00  0.00000000000E+00  0.16367516832E+03  0.16367516832E+03  0.00000000000E+00 0.  1.
         21   -1    0    0  501  502 -0.00000000000E+00 -0.00000000000E+00 -0.32083366286E+03  0.32083366286E+03  0.00000000000E+00 0.  1.
      99926    2    1    2    0    0  0.00000000000E+00  0.00000000000E+00 -0.15715849454E+03  0.48450883118E+03  0.45831213718E+03 0.  0.
      99925    2    3    3    0    0  0.18527045375E+02 -0.25684676615E+02  0.19693882998E+02  0.26558595534E+03  0.26295455239E+03 0.  0.
         25    1    4    4    0    0 -0.13296051703E+01 -0.12634865218E+02 -0.29395509070E+02  0.12912401683E+03  0.12509000000E+03 0.  0.
         25    1    4    4    0    0  0.19856650545E+02 -0.13049811397E+02  0.49089392068E+02  0.13646193851E+03  0.12509000000E+03 0.  0.
         25    1    3    3    0    0 -0.18527045375E+02  0.25684676615E+02 -0.17685237754E+03  0.21892287584E+03  0.12509000000E+03 0.  0.
<mgrwt>
<rscale>  2 0.45831214E+03</rscale>
<asrwt>0</asrwt>
<pdfrwt beam="1">  1       21 0.24069878E-01 0.45831214E+03</pdfrwt>
<pdfrwt beam="2">  1       21 0.47181421E-01 0.45831214E+03</pdfrwt>
<totfact> 0.64656601E+04</totfact>
</mgrwt>
</event>
<event>
 7    0  0.4709932E-002  0.4527292E+03  0.7546771E-02  0.1026911E+00
         21   -1    0    0  502  501  0.00000000000E+00  0.00000000000E+00  0.28621146805E+03  0.28621146805E+03  0.00000000000E+00 0. -1.
         21   -1    0    0  501  502 -0.00000000000E+00 -0.00000000000E+00 -0.17903170817E+03  0.17903170817E+03  0.00000000000E+00 0. -1.
      99926    2    1    2    0    0  0.00000000000E+00  0.00000000000E+00  0.10717975989E+03  0.46524317622E+03  0.45272918184E+03 0.  0.
      99925    2    3    3    0    0 -0.20979427873E+02 -0.83298779300E+02 -0.47488847790E+01  0.27668455769E+03  0.26296952205E+03 0.  0.
         25    1    4    4    0    0  0.22516137456E+02 -0.35748034468E+02 -0.25430987205E+02  0.13445869858E+03  0.12509000000E+03 0.  0.
         25    1    3    3    0    0  0.20979427873E+02  0.83298779300E+02  0.11192864467E+03  0.18855861853E+03  0.12509000000E+03 0.  0.
         25    1    4    4    0    0 -0.43495565329E+02 -0.47550744832E+02  0.20682102426E+02  0.14222585910E+03  0.12509000000E+03 0.  0.
<mgrwt>
<rscale>  2 0.45272918E+03</rscale>
<asrwt>0</asrwt>
<pdfrwt beam="1">  1       21 0.42089922E-01 0.45272918E+03</pdfrwt>
<pdfrwt beam="2">  1       21 0.26328192E-01 0.45272918E+03</pdfrwt>
<totfact> 0.69026344E+04</totfact>
</mgrwt>
</event>
<event>
 7    0  0.4709932E-002  0.4186608E+03  0.7546771E-02  0.1037503E+00
         21   -1    0    0  502  501  0.00000000000E+00  0.00000000000E+00  0.83430886219E+02  0.83430886219E+02  0.00000000000E+00 0.  1.
         21   -1    0    0  501  502 -0.00000000000E+00 -0.00000000000E+00 -0.52521577244E+03  0.52521577244E+03  0.00000000000E+00 0.  1.
      99926    2    1    2    0    0 -0.12767564783E-14  0.00000000000E+00 -0.44178488622E+03  0.60864665866E+03  0.41866080471E+03 0.  0.
      99925    2    3    3    0    0  0.10699754164E+00  0.37007451703E+02 -0.38168262633E+03  0.46501743923E+03  0.26303997531E+03 0.  0.
         25    1    4    4    0    0  0.11775550384E+02  0.28924081837E+02 -0.12728876726E+03  0.18117727360E+03  0.12509000000E+03 0.  0.
         25    1    4    4    0    0 -0.11668552842E+02  0.80833698660E+01 -0.25439385907E+03  0.28384016563E+03  0.12509000000E+03 0.  0.
         25    1    3    3    0    0 -0.10699754164E+00 -0.37007451703E+02 -0.60102259886E+02  0.14362921943E+03  0.12509000000E+03 0.  0.
<mgrwt>
<rscale>  2 0.41866080E+03</rscale>
<asrwt>0</asrwt>
<pdfrwt beam="1">  1       21 0.12269249E-01 0.41866080E+03</pdfrwt>
<pdfrwt beam="2">  1       21 0.77237610E-01 0.41866080E+03</pdfrwt>
<totfact> 0.78316012E+04</totfact>
</mgrwt>
</event>
<event>
 7    0  0.4709932E-002  0.4570733E+03  0.7546771E-02  0.1025633E+00
         21   -1    0    0  502  501  0.00000000000E+00  0.00000000000E+00  0.70731596024E+02  0.70731596024E+02  0.00000000000E+00 0.  1.
         21   -1    0    0  501  502 -0.00000000000E+00 -0.00000000000E+00 -0.73841104066E+03  0.73841104066E+03  0.00000000000E+00 0.  1.
      99926    2    1    2    0    0  0.00000000000E+00  0.35527136788E-14 -0.66767944464E+03  0.80914263669E+03  0.45707326077E+03 0.  0.
      99925    2    3    3    0    0 -0.10504706294E+03 -0.17976746025E+02 -0.49453832560E+03  0.57043066792E+03  0.26356202798E+03 0.  0.
         25    1    3    3    0    0  0.10504706294E+03  0.17976746025E+02 -0.17314111904E+03  0.23871196876E+03  0.12509000000E+03 0.  0.
         25    1    4    4    0    0 -0.88380034259E+02  0.60308603370E+01 -0.23066086381E+03  0.27694646401E+03  0.12509000000E+03 0.  0.
         25    1    4    4    0    0 -0.16667028678E+02 -0.24007606362E+02 -0.26387746179E+03  0.29348420391E+03  0.12509000000E+03 0.  0.
<mgrwt>
<rscale>  2 0.45707326E+03</rscale>
<asrwt>0</asrwt>
<pdfrwt beam="1">  1       21 0.10401705E-01 0.45707326E+03</pdfrwt>
<pdfrwt beam="2">  1       21 0.10858986E+00 0.45707326E+03</pdfrwt>
<totfact> 0.46563568E+04</totfact>
</mgrwt>
</event>
<event>
 7    0  0.4709932E-002  0.4518469E+03  0.7546771E-02  0.1027173E+00
         21   -1    0    0  502  501  0.00000000000E+00  0.00000000000E+00  0.15678871690E+03  0.15678871690E+03  0.00000000000E+00 0. -1.
         21   -1    0    0  501  502 -0.00000000000E+00 -0.00000000000E+00 -0.32554262827E+03  0.32554262827E+03  0.00000000000E+00 0. -1.
      99926    2    1    2    0    0  0.71054273576E-14  0.00000000000E+00 -0.16875391137E+03  0.48233134517E+03  0.45184692533E+03 0.  0.
      99925    2    3    3    0    0 -0.54784334433E+02 -0.88088088432E+01 -0.47948049634E+01  0.26876867267E+03  0.26293476537E+03 0.  0.
         25    1    3    3    0    0  0.54784334433E+02  0.88088088432E+01 -0.16395910640E+03  0.21356267250E+03  0.12509000000E+03 0.  0.
         25    1    4    4    0    0 -0.14305940028E+02 -0.36361197656E+02 -0.23497763434E+02  0.13314071354E+03  0.12509000000E+03 0.  0.
         25    1    4    4    0    0 -0.40478394404E+02  0.27552388813E+02  0.18702958471E+02  0.13562795913E+03  0.12509000000E+03 0.  0.
<mgrwt>
<rscale>  2 0.45184693E+03</rscale>
<asrwt>0</asrwt>
<pdfrwt beam="1">  1       21 0.23057164E-01 0.45184693E+03</pdfrwt>
<pdfrwt beam="2">  1       21 0.47873915E-01 0.45184693E+03</pdfrwt>
<totfact> 0.68222462E+04</totfact>
</mgrwt>
</event>
<event>
 7    0  0.4709932E-002  0.4512018E+03  0.7546771E-02  0.1027364E+00
         21   -1    0    0  502  501  0.00000000000E+00  0.00000000000E+00  0.95318726991E+02  0.95318726991E+02  0.00000000000E+00 0.  1.
         21   -1    0    0  501  502 -0.00000000000E+00 -0.00000000000E+00 -0.53395337872E+03  0.53395337872E+03  0.00000000000E+00 0.  1.
      99926    2    1    2    0    0  0.00000000000E+00 -0.88817841970E-15 -0.43863465173E+03  0.62927210571E+03  0.45120175679E+03 0.  0.
      99925    2    3    3    0    0 -0.85040562471E+02  0.57844086119E+01 -0.18082493114E+03  0.33030937095E+03  0.26294727259E+03 0.  0.
         25    1    3    3    0    0  0.85040562471E+02 -0.57844086119E+01 -0.25780972058E+03  0.29896273476E+03  0.12509000000E+03 0.  0.
         25    1    4    4    0    0 -0.64213407250E+02 -0.22009425732E+02 -0.65535538491E+02  0.15668500693E+03  0.12509000000E+03 0.  0.
         25    1    4    4    0    0 -0.20827155221E+02  0.27793834344E+02 -0.11528939265E+03  0.17362436402E+03  0.12509000000E+03 0.  0.
<mgrwt>
<rscale>  2 0.45120176E+03</rscale>
<asrwt>0</asrwt>
<pdfrwt beam="1">  1       21 0.14017460E-01 0.45120176E+03</pdfrwt>
<pdfrwt beam="2">  1       21 0.78522555E-01 0.45120176E+03</pdfrwt>
<totfact> 0.58650580E+04</totfact>
</mgrwt>
</event>
<event>
 7    0  0.4709932E-002  0.4491423E+03  0.7546771E-02  0.1027978E+00
         21   -1    0    0  502  501  0.00000000000E+00  0.00000000000E+00  0.74203116449E+02  0.74203116449E+02  0.00000000000E+00 0. -1.
         21   -1    0    0  501  502 -0.00000000000E+00 -0.00000000000E+00 -0.67965068057E+03  0.67965068057E+03  0.00000000000E+00 0. -1.
      99926    2    1    2    0    0  0.00000000000E+00  0.00000000000E+00 -0.60544756412E+03  0.75385379702E+03  0.44914228745E+03 0.  0.
      99925    2    3    3    0    0  0.10736779303E+03  0.58064063966E+01 -0.38763852412E+03  0.48063256186E+03  0.26302562005E+03 0.  0.
         25    1    4    4    0    0  0.19069914354E+02 -0.14664305761E+01 -0.21743515634E+03  0.25157775610E+03  0.12509000000E+03 0.  0.
         25    1    3    3    0    0 -0.10736779303E+03 -0.58064063966E+01 -0.21780903999E+03  0.27322123515E+03  0.12509000000E+03 0.  0.
         25    1    4    4    0    0  0.88297878680E+02  0.72728369727E+01 -0.17020336778E+03  0.22905480576E+03  0.12509000000E+03 0.  0.
<mgrwt>
<rscale>  2 0.44914229E+03</rscale>
<asrwt>0</asrwt>
<pdfrwt beam="1">  1       21 0.10912222E-01 0.44914229E+03</pdfrwt>
<pdfrwt beam="2">  1       21 0.99948637E-01 0.44914229E+03</pdfrwt>
<totfact> 0.52447669E+04</totfact>
</mgrwt>
</event>
<event>
 7    0  0.4709932E-002  0.4568127E+03  0.7546771E-02  0.1025710E+00
         21   -1    0    0  502  501  0.00000000000E+00  0.00000000000E+00  0.24926242406E+03  0.24926242406E+03  0.00000000000E+00 0. -1.
         21   -1    0    0  501  502 -0.00000000000E+00 -0.00000000000E+00 -0.20929531766E+03  0.20929531766E+03  0.00000000000E+00 0. -1.
      99926    2    1    2    0    0 -0.14210854715E-13 -0.17763568394E-14  0.39967106403E+02  0.45855774172E+03  0.45681268907E+03 0.  0.
      99925    2    3    3    0    0 -0.82814503879E+02 -0.11316902206E+02  0.10450878117E+03  0.29485236548E+03  0.26273469082E+03 0.  0.
         25    1    4    4    0    0 -0.69458496365E+02 -0.30209093368E+02  0.74636780492E+02  0.16418047735E+03  0.12509000000E+03 0.  0.
         25    1    4    4    0    0 -0.13356007514E+02  0.18892191161E+02  0.29872000677E+02  0.13067188813E+03  0.12509000000E+03 0.  0.
         25    1    3    3    0    0  0.82814503879E+02  0.11316902206E+02 -0.64541674766E+02  0.16370537624E+03  0.12509000000E+03 0.  0.
<mgrwt>
<rscale>  2 0.45681269E+03</rscale>
<asrwt>0</asrwt>
<pdfrwt beam="1">  1       21 0.36656239E-01 0.45681269E+03</pdfrwt>
<pdfrwt beam="2">  1       21 0.30778723E-01 0.45681269E+03</pdfrwt>
<totfact> 0.67307228E+04</totfact>
</mgrwt>
</event>
<event>
 7    0  0.4709932E-002  0.4526830E+03  0.7546771E-02  0.1026925E+00
         21   -1    0    0  502  501  0.00000000000E+00  0.00000000000E+00  0.38841141562E+02  0.38841141562E+02  0.00000000000E+00 0. -1.
         21   -1    0    0  501  502 -0.00000000000E+00 -0.00000000000E+00 -0.13189742081E+04  0.13189742081E+04  0.00000000000E+00 0. -1.
      99926    2    1    2    0    0  0.14210854715E-13  0.71054273576E-14 -0.12801330666E+04  0.13578153497E+04  0.45268295278E+03 0.  0.
      99925    2    3    3    0    0  0.99979896942E+02  0.44659697641E+02 -0.86091522336E+03  0.90683688396E+03  0.26303544232E+03 0.  0.
         25    1    4    4    0    0  0.65813547817E+02  0.46335109832E+02 -0.55459394213E+03  0.57419536243E+03  0.12509000000E+03 0.  0.
         25    1    3    3    0    0 -0.99979896942E+02 -0.44659697641E+02 -0.41921784320E+03  0.45097846572E+03  0.12509000000E+03 0.  0.
         25    1    4    4    0    0  0.34166349124E+02 -0.16754121914E+01 -0.30632128122E+03  0.33264152153E+03  0.12509000000E+03 0.  0.
<mgrwt>
<rscale>  2 0.45268295E+03</rscale>
<asrwt>0</asrwt>
<pdfrwt beam="1">  1       21 0.57119334E-02 0.45268295E+03</pdfrwt>
<pdfrwt beam="2">  1       21 0.19396677E+00 0.45268295E+03</pdfrwt>
<totfact> 0.27978686E+04</totfact>
</mgrwt>
</event>
<event>
 7    0  0.4709932E-002  0.4550339E+03  0.7546771E-02  0.1026231E+00
         21   -1    0    0  502  501  0.00000000000E+00  0.00000000000E+00  0.50536383151E+03  0.50536383151E+03  0.00000000000E+00 0.  1.
         21   -1    0    0  501  502 -0.00000000000E+00 -0.00000000000E+00 -0.10242911508E+03  0.10242911508E+03  0.00000000000E+00 0.  1.
      99926    2    1    2    0    0 -0.71054273576E-14 -0.14210854715E-13  0.40293471643E+03  0.60779294659E+03  0.45503393304E+03 0.  0.
      99925    2    3    3    0    0 -0.41889008904E+02 -0.77400569265E+02  0.34872830435E+03  0.44552347811E+03  0.26293383598E+03 0.  0.
         25    1    3    3    0    0  0.41889008904E+02  0.77400569265E+02  0.54206412081E+02  0.16226946848E+03  0.12509000000E+03 0.  0.
         25    1    4    4    0    0 -0.70694011465E+01 -0.85985759701E-01  0.17564245405E+03  0.21574930728E+03  0.12509000000E+03 0.  0.
         25    1    4    4    0    0 -0.34819607757E+02 -0.77314583505E+02  0.17308585029E+03  0.22977417083E+03  0.12509000000E+03 0.  0.
<mgrwt>
<rscale>  2 0.45503393E+03</rscale>
<asrwt>0</asrwt>
<pdfrwt beam="1">  1       21 0.74318209E-01 0.45503393E+03</pdfrwt>
<pdfrwt beam="2">  1       21 0.15063105E-01 0.45503393E+03</pdfrwt>
<totfact> 0.58185541E+04</totfact>
</mgrwt>
</event>
<event>
 7    0  0.4709932E-002  0.4577338E+03  0.7546771E-02  0.1025441E+00
         21   -1    0    0  502  501  0.00000000000E+00  0.00000000000E+00  0.64634787354E+03  0.64634787354E+03  0.00000000000E+00 0.  1.
         21   -1    0    0  501  502 -0.00000000000E+00 -0.00000000000E+00 -0.81040049829E+02  0.81040049829E+02  0.00000000000E+00 0.  1.
      99926    2    1    2    0    0  0.00000000000E+00  0.00000000000E+00  0.56530782371E+03  0.72738792337E+03  0.45773382605E+03 0.  0.
      99925    2    3    3    0    0 -0.80745364535E+02 -0.19394682902E+02  0.22661975050E+03  0.35691108650E+03  0.26293163509E+03 0.  0.
         25    1    4    4    0    0 -0.77079135405E+02  0.87418559552E+01  0.12902887882E+03  0.19573853180E+03  0.12509000000E+03 0.  0.
         25    1    4    4    0    0 -0.36662291303E+01 -0.28136538857E+02  0.97590871675E+02  0.16117255470E+03  0.12509000000E+03 0.  0.
         25    1    3    3    0    0  0.80745364535E+02  0.19394682902E+02  0.33868807322E+03  0.37047683687E+03  0.12509000000E+03 0.  0.
<mgrwt>
<rscale>  2 0.45773383E+03</rscale>
<asrwt>0</asrwt>
<pdfrwt beam="1">  1       21 0.95051155E-01 0.45773383E+03</pdfrwt>
<pdfrwt beam="2">  1       21 0.11917655E-01 0.45773383E+03</pdfrwt>
<totfact> 0.50349872E+04</totfact>
</mgrwt>
</event>
<event>
 7    0  0.4709932E-002  0.4498699E+03  0.7546771E-02  0.1027761E+00
         21   -1    0    0  502  501  0.00000000000E+00  0.00000000000E+00  0.43519084040E+03  0.43519084040E+03  0.00000000000E+00 0.  1.
         21   -1    0    0  501  502 -0.00000000000E+00 -0.00000000000E+00 -0.11626103168E+03  0.11626103168E+03  0.00000000000E+00 0.  1.
      99926    2    1    2    0    0  0.00000000000E+00  0.00000000000E+00  0.31892980872E+03  0.55145187209E+03  0.44986991935E+03 0.  0.
      99925    2    3    3    0    0 -0.26387558876E+02 -0.90281426132E+02  0.13580729533E+03  0.31056102092E+03  0.26297811141E+03 0.  0.
         25    1    4    4    0    0 -0.19199386427E+02 -0.37020481321E+02  0.11059737558E+03  0.17210002923E+03  0.12509000000E+03 0.  0.
         25    1    3    3    0    0  0.26387558876E+02  0.90281426132E+02  0.18312251338E+03  0.24089085117E+03  0.12509000000E+03 0.  0.
         25    1    4    4    0    0 -0.71881724485E+01 -0.53260944811E+02  0.25209919753E+02  0.13846099169E+03  0.12509000000E+03 0.  0.
<mgrwt>
<rscale>  2 0.44986992E+03</rscale>
<asrwt>0</asrwt>
<pdfrwt beam="1">  1       21 0.63998652E-01 0.44986992E+03</pdfrwt>
<pdfrwt beam="2">  1       21 0.17097211E-01 0.44986992E+03</pdfrwt>
<totfact> 0.64342641E+04</totfact>
</mgrwt>
</event>
<event>
 7    0  0.4709932E-002  0.4300371E+03  0.7546771E-02  0.1033848E+00
         21   -1    0    0  502  501  0.00000000000E+00  0.00000000000E+00  0.44002486036E+03  0.44002486036E+03  0.00000000000E+00 0.  1.
         21   -1    0    0  501  502 -0.00000000000E+00 -0.00000000000E+00 -0.10506899069E+03  0.10506899069E+03  0.00000000000E+00 0.  1.
      99926    2    1    2    0    0  0.00000000000E+00  0.00000000000E+00  0.33495586968E+03  0.54509385105E+03  0.43003705866E+03 0.  0.
      99925    2    3    3    0    0  0.79973250001E+02 -0.20629447464E+02  0.25355173554E+03  0.37452000788E+03  0.26297425519E+03 0.  0.
         25    1    4    4    0    0  0.81689087296E+02 -0.18088010108E+02  0.14065320683E+03  0.20598814477E+03  0.12509000000E+03 0.  0.
         25    1    4    4    0    0 -0.17158372945E+01 -0.25414373559E+01  0.11289852871E+03  0.16853186312E+03  0.12509000000E+03 0.  0.
         25    1    3    3    0    0 -0.79973250001E+02  0.20629447464E+02  0.81404134140E+02  0.17057384317E+03  0.12509000000E+03 0.  0.
<mgrwt>
<rscale>  2 0.43003706E+03</rscale>
<asrwt>0</asrwt>
<pdfrwt beam="1">  1       21 0.64709538E-01 0.43003706E+03</pdfrwt>
<pdfrwt beam="2">  1       21 0.15451322E-01 0.43003706E+03</pdfrwt>
<totfact> 0.76156390E+04</totfact>
</mgrwt>
</event>
<event>
 7    0  0.4709932E-002  0.4231449E+03  0.7546771E-02  0.1036048E+00
         21   -1    0    0  502  501  0.00000000000E+00  0.00000000000E+00  0.13182605039E+03  0.13182605039E+03  0.00000000000E+00 0.  1.
         21   -1    0    0  501  502 -0.00000000000E+00 -0.00000000000E+00 -0.33956042588E+03  0.33956042588E+03  0.00000000000E+00 0.  1.
      99926    2    1    2    0    0  0.00000000000E+00  0.00000000000E+00 -0.20773437549E+03  0.47138647628E+03  0.42314493883E+03 0.  0.
      99925    2    3    3    0    0  0.79319935679E+02 -0.60033754800E+01 -0.13062481125E+03  0.30429043889E+03  0.26306299088E+03 0.  0.
         25    1    3    3    0    0 -0.79319935679E+02  0.60033754800E+01 -0.77109564242E+02  0.16709603739E+03  0.12509000000E+03 0.  0.
         25    1    4    4    0    0  0.25921985101E+02 -0.21627588075E+01 -0.20831808219E+02  0.12945307710E+03  0.12509000000E+03 0.  0.
         25    1    4    4    0    0  0.53397950578E+02 -0.38406166724E+01 -0.10979300303E+03  0.17483736179E+03  0.12509000000E+03 0.  0.
<mgrwt>
<rscale>  2 0.42314494E+03</rscale>
<asrwt>0</asrwt>
<pdfrwt beam="1">  1       21 0.19386184E-01 0.42314494E+03</pdfrwt>
<pdfrwt beam="2">  1       21 0.49935356E-01 0.42314494E+03</pdfrwt>
<totfact> 0.87437627E+04</totfact>
</mgrwt>
</event>
<event>
 7    0  0.4709932E-002  0.4553425E+03  0.7546771E-02  0.1026141E+00
         21   -1    0    0  502  501  0.00000000000E+00  0.00000000000E+00  0.15270813908E+03  0.15270813908E+03  0.00000000000E+00 0. -1.
         21   -1    0    0  501  502 -0.00000000000E+00 -0.00000000000E+00 -0.33943312182E+03  0.33943312182E+03  0.00000000000E+00 0. -1.
      99926    2    1    2    0    0  0.00000000000E+00  0.00000000000E+00 -0.18672498274E+03  0.49214126090E+03  0.45534251010E+03 0.  0.
      99925    2    3    3    0    0 -0.97034259981E+02 -0.26031122662E+02 -0.17472231494E+03  0.33125360106E+03  0.26288361287E+03 0.  0.
         25    1    4    4    0    0 -0.31598130432E+02 -0.45935983038E+02 -0.10487062470E+03  0.17249322424E+03  0.12509000000E+03 0.  0.
         25    1    3    3    0    0  0.97034259981E+02  0.26031122662E+02 -0.12002667807E+02  0.16088765985E+03  0.12509000000E+03 0.  0.
         25    1    4    4    0    0 -0.65436129549E+02  0.19904860376E+02 -0.69851690240E+02  0.15876037681E+03  0.12509000000E+03 0.  0.
<mgrwt>
<rscale>  2 0.45534251E+03</rscale>
<asrwt>0</asrwt>
<pdfrwt beam="1">  1       21 0.22457079E-01 0.45534251E+03</pdfrwt>
<pdfrwt beam="2">  1       21 0.49916636E-01 0.45534251E+03</pdfrwt>
<totfact> 0.65647677E+04</totfact>
</mgrwt>
</event>
<event>
 7    0  0.4709932E-002  0.4526157E+03  0.7546771E-02  0.1026945E+00
         21   -1    0    0  502  501  0.00000000000E+00  0.00000000000E+00  0.13208081195E+03  0.13208081195E+03  0.00000000000E+00 0. -1.
         21   -1    0    0  501  502 -0.00000000000E+00 -0.00000000000E+00 -0.38775689527E+03  0.38775689527E+03  0.00000000000E+00 0. -1.
      99926    2    1    2    0    0  0.00000000000E+00  0.00000000000E+00 -0.25567608332E+03  0.51983770722E+03  0.45261571146E+03 0.  0.
      99925    2    3    3    0    0  0.88784738417E+02 -0.57000467596E+02 -0.11772296345E+03  0.30580417138E+03  0.26177416226E+03 0.  0.
         25    1    4    4    0    0  0.60721382631E+02 -0.93572054142E+01 -0.27756839433E+02  0.14210064686E+03  0.12509000000E+03 0.  0.
         25    1    4    4    0    0  0.28063355787E+02 -0.47643262182E+02 -0.89966124018E+02  0.16370352452E+03  0.12509000000E+03 0.  0.
         25    1    3    3    0    0 -0.88784738417E+02  0.57000467596E+02 -0.13795311987E+03  0.21403353584E+03  0.12509000000E+03 0.  0.
<mgrwt>
<rscale>  2 0.45261571E+03</rscale>
<asrwt>0</asrwt>
<pdfrwt beam="1">  1       21 0.19423649E-01 0.45261571E+03</pdfrwt>
<pdfrwt beam="2">  1       21 0.57023072E-01 0.45261571E+03</pdfrwt>
<totfact> 0.65121437E+04</totfact>
</mgrwt>
</event>
<event>
 7    0  0.4709932E-002  0.4330998E+03  0.7546771E-02  0.1032885E+00
         21   -1    0    0  502  501  0.00000000000E+00  0.00000000000E+00  0.11214131988E+03  0.11214131988E+03  0.00000000000E+00 0.  1.
         21   -1    0    0  501  502 -0.00000000000E+00 -0.00000000000E+00 -0.41816756452E+03  0.41816756452E+03  0.00000000000E+00 0.  1.
      99926    2    1    2    0    0  0.00000000000E+00  0.00000000000E+00 -0.30602624464E+03  0.53030888441E+03  0.43309981583E+03 0.  0.
      99925    2    3    3    0    0 -0.83367906915E+02 -0.39571585388E+01 -0.15190909903E+03  0.31498245854E+03  0.26300514788E+03 0.  0.
         25    1    4    4    0    0 -0.47992918098E+02  0.32687831284E+01 -0.12235796633E+03  0.18147447521E+03  0.12509000000E+03 0.  0.
         25    1    3    3    0    0  0.83367906915E+02  0.39571585388E+01 -0.15411714561E+03  0.21532642587E+03  0.12509000000E+03 0.  0.
         25    1    4    4    0    0 -0.35374988817E+02 -0.72259416672E+01 -0.29551132701E+02  0.13350798332E+03  0.12509000000E+03 0.  0.
<mgrwt>
<rscale>  2 0.43309982E+03</rscale>
<asrwt>0</asrwt>
<pdfrwt beam="1">  1       21 0.16491371E-01 0.43309982E+03</pdfrwt>
<pdfrwt beam="2">  1       21 0.61495229E-01 0.43309982E+03</pdfrwt>
<totfact> 0.75438397E+04</totfact>
</mgrwt>
</event>
<event>
 7    0  0.4709932E-002  0.4547052E+03  0.7546771E-02  0.1026328E+00
         21   -1    0    0  502  501  0.00000000000E+00  0.00000000000E+00  0.23424280793E+03  0.23424280793E+03  0.00000000000E+00 0. -1.
         21   -1    0    0  501  502 -0.00000000000E+00 -0.00000000000E+00 -0.22066502014E+03  0.22066502014E+03  0.00000000000E+00 0. -1.
      99926    2    1    2    0    0  0.00000000000E+00 -0.71054273576E-14  0.13577787789E+02  0.45490782808E+03  0.45470515252E+03 0.  0.
      99925    2    3    3    0    0  0.42738652464E+02 -0.63090300123E+02 -0.75120413123E+02  0.28367156635E+03  0.26271563087E+03 0.  0.
         25    1    4    4    0    0  0.11120727526E+02 -0.70779660618E+02 -0.44060711995E+02  0.15073913022E+03  0.12509000000E+03 0.  0.
         25    1    3    3    0    0 -0.42738652464E+02  0.63090300123E+02  0.88698200912E+02  0.17123626172E+03  0.12509000000E+03 0.  0.
         25    1    4    4    0    0  0.31617924937E+02  0.76893604949E+01 -0.31059701128E+02  0.13293243613E+03  0.12509000000E+03 0.  0.
<mgrwt>
<rscale>  2 0.45470515E+03</rscale>
<asrwt>0</asrwt>
<pdfrwt beam="1">  1       21 0.34447472E-01 0.45470515E+03</pdfrwt>
<pdfrwt beam="2">  1       21 0.32450738E-01 0.45470515E+03</pdfrwt>
<totfact> 0.68714068E+04</totfact>
</mgrwt>
</event>
<event>
 7    0  0.4709932E-002  0.4516935E+03  0.7546771E-02  0.1027218E+00
         21   -1    0    0  502  501  0.00000000000E+00  0.00000000000E+00  0.17643919656E+03  0.17643919656E+03  0.00000000000E+00 0. -1.
         21   -1    0    0  501  502 -0.00000000000E+00 -0.00000000000E+00 -0.28908971820E+03  0.28908971820E+03  0.00000000000E+00 0. -1.
      99926    2    1    2    0    0  0.00000000000E+00  0.00000000000E+00 -0.11265052164E+03  0.46552891477E+03  0.45169351385E+03 0.  0.
      99925    2    3    3    0    0  0.52262390182E+02  0.62117220054E+01 -0.17071868900E+03  0.31791670972E+03  0.26297570350E+03 0.  0.
         25    1    3    3    0    0 -0.52262390182E+02 -0.62117220054E+01  0.58068167356E+02  0.14761220504E+03  0.12509000000E+03 0.  0.
         25    1    4    4    0    0  0.62861151723E+02 -0.25269999213E+01 -0.68957492296E+02  0.15607867878E+03  0.12509000000E+03 0.  0.
         25    1    4    4    0    0 -0.10598761541E+02  0.87387219267E+01 -0.10176119670E+03  0.16183803095E+03  0.12509000000E+03 0.  0.
<mgrwt>
<rscale>  2 0.45169351E+03</rscale>
<asrwt>0</asrwt>
<pdfrwt beam="1">  1       21 0.25946941E-01 0.45169351E+03</pdfrwt>
<pdfrwt beam="2">  1       21 0.42513194E-01 0.45169351E+03</pdfrwt>
<totfact> 0.69576857E+04</totfact>
</mgrwt>
</event>
<event>
 7    0  0.4709932E-002  0.4565518E+03  0.7546771E-02  0.1025786E+00
         21   -1    0    0  502  501  0.00000000000E+00  0.00000000000E+00  0.10263429343E+03  0.10263429343E+03  0.00000000000E+00 0. -1.
         21   -1    0    0  501  502 -0.00000000000E+00 -0.00000000000E+00 -0.50772395969E+03  0.50772395969E+03  0.00000000000E+00 0. -1.
      99926    2    1    2    0    0 -0.14210854715E-13  0.00000000000E+00 -0.40508966626E+03  0.61035825312E+03  0.45655181462E+03 0.  0.
      99925    2    3    3    0    0  0.89455248328E+02  0.65861530360E+02 -0.29217735037E+03  0.40852495107E+03  0.26303050953E+03 0.  0.
         25    1    3    3    0    0 -0.89455248328E+02 -0.65861530360E+02 -0.11291231588E+03  0.20183330204E+03  0.12509000000E+03 0.  0.
         25    1    4    4    0    0  0.60617141831E+01  0.33102330270E+02 -0.10897321752E+03  0.16927840644E+03  0.12509000000E+03 0.  0.
         25    1    4    4    0    0  0.83393534144E+02  0.32759200090E+02 -0.18320413285E+03  0.23924654464E+03  0.12509000000E+03 0.  0.
<mgrwt>
<rscale>  2 0.45655181E+03</rscale>
<asrwt>0</asrwt>
<pdfrwt beam="1">  1       21 0.15093278E-01 0.45655181E+03</pdfrwt>
<pdfrwt beam="2">  1       21 0.74665288E-01 0.45655181E+03</pdfrwt>
<totfact> 0.57339099E+04</totfact>
</mgrwt>
</event>
<event>
 7    0  0.4709932E-002  0.4596988E+03  0.7546771E-02  0.1024869E+00
         21   -1    0    0  502  501  0.00000000000E+00  0.00000000000E+00  0.70204195249E+03  0.70204195249E+03  0.00000000000E+00 0. -1.
         21   -1    0    0  501  502 -0.00000000000E+00 -0.00000000000E+00 -0.75252987070E+02  0.75252987070E+02  0.00000000000E+00 0. -1.
      99926    2    1    2    0    0  0.00000000000E+00  0.00000000000E+00  0.62678896542E+03  0.77729493956E+03  0.45969883173E+03 0.  0.
      99925    2    3    3    0    0  0.94553190302E+02 -0.17197480570E+02  0.50699651864E+03  0.57921970754E+03  0.26308542444E+03 0.  0.
         25    1    3    3    0    0 -0.94553190302E+02  0.17197480570E+02  0.11979244678E+03  0.19807523202E+03  0.12509000000E+03 0.  0.
         25    1    4    4    0    0  0.29908623529E+02  0.28514419635E+02  0.25235797461E+03  0.28467464470E+03  0.12509000000E+03 0.  0.
         25    1    4    4    0    0  0.64644566773E+02 -0.45711900205E+02  0.25463854403E+03  0.29454506284E+03  0.12509000000E+03 0.  0.
<mgrwt>
<rscale>  2 0.45969883E+03</rscale>
<asrwt>0</asrwt>
<pdfrwt beam="1">  1       21 0.10324146E+00 0.45969883E+03</pdfrwt>
<pdfrwt beam="2">  1       21 0.11066616E-01 0.45969883E+03</pdfrwt>
<totfact> 0.47120537E+04</totfact>
</mgrwt>
</event>
<event>
 7    0  0.4709932E-002  0.4544384E+03  0.7546771E-02  0.1026407E+00
         21   -1    0    0  502  501  0.00000000000E+00  0.00000000000E+00  0.18083326915E+03  0.18083326915E+03  0.00000000000E+00 0. -1.
         21   -1    0    0  501  502 -0.00000000000E+00 -0.00000000000E+00 -0.28550372152E+03  0.28550372152E+03  0.00000000000E+00 0. -1.
      99926    2    1    2    0    0  0.00000000000E+00  0.00000000000E+00 -0.10467045237E+03  0.46633699067E+03  0.45443842847E+03 0.  0.
      99925    2    3    3    0    0  0.76715553336E+02 -0.82131025187E+02 -0.59545732911E+02  0.29222630798E+03  0.26309644495E+03 0.  0.
         25    1    4    4    0    0  0.43984190311E+02 -0.64584406257E+02  0.30084180704E+01  0.14752055182E+03  0.12509000000E+03 0.  0.
         25    1    4    4    0    0  0.32731363025E+02 -0.17546618930E+02 -0.62554150982E+02  0.14470575616E+03  0.12509000000E+03 0.  0.
         25    1    3    3    0    0 -0.76715553336E+02  0.82131025187E+02 -0.45124719460E+02  0.17411068269E+03  0.12509000000E+03 0.  0.
<mgrwt>
<rscale>  2 0.45443843E+03</rscale>
<asrwt>0</asrwt>
<pdfrwt beam="1">  1       21 0.26593128E-01 0.45443843E+03</pdfrwt>
<pdfrwt beam="2">  1       21 0.41985841E-01 0.45443843E+03</pdfrwt>
<totfact> 0.68011855E+04</totfact>
</mgrwt>
</event>
<event>
 7    0  0.4709932E-002  0.4582582E+03  0.7546771E-02  0.1025288E+00
         21   -1    0    0  502  501  0.00000000000E+00  0.00000000000E+00  0.53545287694E+02  0.53545287694E+02  0.00000000000E+00 0. -1.
         21   -1    0    0  501  502 -0.00000000000E+00 -0.00000000000E+00 -0.98048093649E+03  0.98048093649E+03  0.00000000000E+00 0. -1.
      99926    2    1    2    0    0  0.00000000000E+00  0.00000000000E+00 -0.92693564879E+03  0.10340262242E+04  0.45825815354E+03 0.  0.
      99925    2    3    3    0    0 -0.82801920688E+02 -0.76309934219E+02 -0.64608150707E+03  0.70660307113E+03  0.26303464073E+03 0.  0.
         25    1    4    4    0    0 -0.81966446553E+02 -0.44068997984E+02 -0.32326063876E+03  0.35889486429E+03  0.12509000000E+03 0.  0.
         25    1    3    3    0    0  0.82801920688E+02  0.76309934219E+02 -0.28085414173E+03  0.32742315305E+03  0.12509000000E+03 0.  0.
         25    1    4    4    0    0 -0.83547413426E+00 -0.32240936235E+02 -0.32282086831E+03  0.34770820684E+03  0.12509000000E+03 0.  0.
<mgrwt>
<rscale>  2 0.45825815E+03</rscale>
<asrwt>0</asrwt>
<pdfrwt beam="1">  1       21 0.78743076E-02 0.45825815E+03</pdfrwt>
<pdfrwt beam="2">  1       21 0.14418836E+00 0.45825815E+03</pdfrwt>
<totfact> 0.36920972E+04</totfact>
</mgrwt>
</event>
<event>
 7    0  0.4709932E-002  0.4557546E+03  0.7546771E-02  0.1026020E+00
         21   -1    0    0  502  501  0.00000000000E+00  0.00000000000E+00  0.81575319697E+03  0.81575319697E+03  0.00000000000E+00 0.  1.
         21   -1    0    0  501  502 -0.00000000000E+00 -0.00000000000E+00 -0.63656596041E+02  0.63656596041E+02  0.00000000000E+00 0.  1.
      99926    2    1    2    0    0  0.00000000000E+00  0.00000000000E+00  0.75209660093E+03  0.87940979301E+03  0.45575463455E+03 0.  0.
      99925    2    3    3    0    0 -0.72343097708E+02  0.33849352621E+02  0.62931145863E+03  0.68678839823E+03  0.26318451611E+03 0.  0.
         25    1    4    4    0    0 -0.33762218523E+00  0.25850737342E+02  0.24727280465E+03  0.27831586845E+03  0.12509000000E+03 0.  0.
         25    1    4    4    0    0 -0.72005475523E+02  0.79986152786E+01  0.38203865398E+03  0.40847252978E+03  0.12509000000E+03 0.  0.
         25    1    3    3    0    0  0.72343097708E+02 -0.33849352621E+02  0.12278514230E+03  0.19262139478E+03  0.12509000000E+03 0.  0.
<mgrwt>
<rscale>  2 0.45575463E+03</rscale>
<asrwt>0</asrwt>
<pdfrwt beam="1">  1       21 0.11996370E+00 0.45575463E+03</pdfrwt>
<pdfrwt beam="2">  1       21 0.93612646E-02 0.45575463E+03</pdfrwt>
<totfact> 0.43876048E+04</totfact>
</mgrwt>
</event>
<event>
 7    0  0.4709932E-002  0.4651205E+03  0.7546771E-02  0.1023307E+00
         21   -1    0    0  502  501  0.00000000000E+00  0.00000000000E+00  0.21093202519E+03  0.21093202519E+03  0.00000000000E+00 0.  1.
         21   -1    0    0  501  502 -0.00000000000E+00 -0.00000000000E+00 -0.25640620626E+03  0.25640620626E+03  0.00000000000E+00 0.  1.
      99926    2    1    2    0    0 -0.71054273576E-14 -0.14210854715E-13 -0.45474181068E+02  0.46733823145E+03  0.46512054505E+03 0.  0.
      99925    2    3    3    0    0 -0.58114366187E+02 -0.10773594969E+03 -0.29363732507E+02  0.29157882468E+03  0.26300507182E+03 0.  0.
         25    1    4    4    0    0 -0.22928950656E+02 -0.96470340672E+02 -0.13722472474E+02  0.16021260175E+03  0.12509000000E+03 0.  0.
         25    1    3    3    0    0  0.58114366187E+02  0.10773594969E+03 -0.16110448561E+02  0.17575940676E+03  0.12509000000E+03 0.  0.
         25    1    4    4    0    0 -0.35185415531E+02 -0.11265609020E+02 -0.15641260033E+02  0.13136622293E+03  0.12509000000E+03 0.  0.
<mgrwt>
<rscale>  2 0.46512055E+03</rscale>
<asrwt>0</asrwt>
<pdfrwt beam="1">  1       21 0.31019415E-01 0.46512055E+03</pdfrwt>
<pdfrwt beam="2">  1       21 0.37706795E-01 0.46512055E+03</pdfrwt>
<totfact> 0.62453776E+04</totfact>
</mgrwt>
</event>
<event>
 7    0  0.4709932E-002  0.4535857E+03  0.7546771E-02  0.1026658E+00
         21   -1    0    0  502  501  0.00000000000E+00  0.00000000000E+00  0.11399265003E+04  0.11399265003E+04  0.00000000000E+00 0. -1.
         21   -1    0    0  501  502 -0.00000000000E+00 -0.00000000000E+00 -0.45121322181E+02  0.45121322181E+02  0.00000000000E+00 0. -1.
      99926    2    1    2    0    0  0.00000000000E+00 -0.14210854715E-13  0.10948051781E+04  0.11850478225E+04  0.45358567386E+03 0.  0.
      99925    2    3    3    0    0 -0.51800675885E+02 -0.87055279065E+02  0.81288208370E+03  0.86040945306E+03  0.26318285142E+03 0.  0.
         25    1    4    4    0    0  0.54567117439E+01 -0.27862147146E+02  0.44760729705E+03  0.46562417830E+03  0.12509000000E+03 0.  0.
         25    1    3    3    0    0  0.51800675885E+02  0.87055279065E+02  0.28192309444E+03  0.32463836945E+03  0.12509000000E+03 0.  0.
         25    1    4    4    0    0 -0.57257387629E+02 -0.59193131919E+02  0.36527478666E+03  0.39478527476E+03  0.12509000000E+03 0.  0.
<mgrwt>
<rscale>  2 0.45358567E+03</rscale>
<asrwt>0</asrwt>
<pdfrwt beam="1">  1       21 0.16763623E+00 0.45358567E+03</pdfrwt>
<pdfrwt beam="2">  1       21 0.66354893E-02 0.45358567E+03</pdfrwt>
<totfact> 0.32995561E+04</totfact>
</mgrwt>
</event>
<event>
 7    0  0.4709932E-002  0.4551890E+03  0.7546771E-02  0.1026186E+00
         21   -1    0    0  502  501  0.00000000000E+00  0.00000000000E+00  0.68994480498E+03  0.68994480498E+03  0.00000000000E+00 0. -1.
         21   -1    0    0  501  502 -0.00000000000E+00 -0.00000000000E+00 -0.75077395367E+02  0.75077395367E+02  0.00000000000E+00 0. -1.
      99926    2    1    2    0    0 -0.35527136788E-14  0.00000000000E+00  0.61486740961E+03  0.76502220034E+03  0.45518901087E+03 0.  0.
      99925    2    3    3    0    0 -0.27130238078E+02 -0.90523468182E+02  0.49201969716E+03  0.56584987128E+03  0.26300598154E+03 0.  0.
         25    1    3    3    0    0  0.27130238078E+02  0.90523468182E+02  0.12284771245E+03  0.19917232906E+03  0.12509000000E+03 0.  0.
         25    1    4    4    0    0  0.15101763531E+02 -0.25998857036E+02  0.27691753810E+03  0.30534379777E+03  0.12509000000E+03 0.  0.
         25    1    4    4    0    0 -0.42232001609E+02 -0.64524611147E+02  0.21510215906E+03  0.26050607351E+03  0.12509000000E+03 0.  0.
<mgrwt>
<rscale>  2 0.45518901E+03</rscale>
<asrwt>0</asrwt>
<pdfrwt beam="1">  1       21 0.10146247E+00 0.45518901E+03</pdfrwt>
<pdfrwt beam="2">  1       21 0.11040794E-01 0.45518901E+03</pdfrwt>
<totfact> 0.49429590E+04</totfact>
</mgrwt>
</event>
<event>
 7    0  0.4709932E-002  0.4568196E+03  0.7546771E-02  0.1025708E+00
         21   -1    0    0  502  501  0.00000000000E+00  0.00000000000E+00  0.15224377689E+04  0.15224377689E+04  0.00000000000E+00 0.  1.
         21   -1    0    0  501  502 -0.00000000000E+00 -0.00000000000E+00 -0.34268085183E+02  0.34268085183E+02  0.00000000000E+00 0.  1.
      99926    2    1    2    0    0  0.00000000000E+00  0.00000000000E+00  0.14881696837E+04  0.15567058541E+04  0.45681955804E+03 0.  0.
      99925    2    3    3    0    0 -0.21517709846E+02 -0.98203802149E+02  0.11241471951E+04  0.11588781540E+04  0.26302977227E+03 0.  0.
         25    1    4    4    0    0 -0.22547744784E+01 -0.88661772732E+02  0.55870314142E+03  0.57936404988E+03  0.12509000000E+03 0.  0.
         25    1    3    3    0    0  0.21517709846E+02  0.98203802149E+02  0.36402248865E+03  0.39782770006E+03  0.12509000000E+03 0.  0.
         25    1    4    4    0    0 -0.19262935368E+02 -0.95420294172E+01  0.56544405365E+03  0.57951410416E+03  0.12509000000E+03 0.  0.
<mgrwt>
<rscale>  2 0.45681956E+03</rscale>
<asrwt>0</asrwt>
<pdfrwt beam="1">  1       21 0.22388786E+00 0.45681956E+03</pdfrwt>
<pdfrwt beam="2">  1       21 0.50394253E-02 0.45681956E+03</pdfrwt>
<totfact> 0.22108904E+04</totfact>
</mgrwt>
</event>
<event>
 7    0  0.4709932E-002  0.4534240E+03  0.7546771E-02  0.1026706E+00
         21   -1    0    0  502  501  0.00000000000E+00  0.00000000000E+00  0.94474774489E+02  0.94474774489E+02  0.00000000000E+00 0. -1.
         21   -1    0    0  501  502 -0.00000000000E+00 -0.00000000000E+00 -0.54404283955E+03  0.54404283955E+03  0.00000000000E+00 0. -1.
      99926    2    1    2    0    0  0.00000000000E+00  0.00000000000E+00 -0.44956806506E+03  0.63851761404E+03  0.45342397192E+03 0.  0.
      99925    2    3    3    0    0  0.26026237024E+02 -0.95054977977E+02 -0.20907972268E+03  0.35008224039E+03  0.26292666420E+03 0.  0.
         25    1    4    4    0    0  0.50526671752E+02 -0.32718231271E+02 -0.10750820651E+03  0.17558174672E+03  0.12509000000E+03 0.  0.
         25    1    3    3    0    0 -0.26026237024E+02  0.95054977977E+02 -0.24048834238E+03  0.28843537365E+03  0.12509000000E+03 0.  0.
         25    1    4    4    0    0 -0.24500434728E+02 -0.62336746705E+02 -0.10157151617E+03  0.17450049367E+03  0.12509000000E+03 0.  0.
<mgrwt>
<rscale>  2 0.45342397E+03</rscale>
<asrwt>0</asrwt>
<pdfrwt beam="1">  1       21 0.13893349E-01 0.45342397E+03</pdfrwt>
<pdfrwt beam="2">  1       21 0.80006300E-01 0.45342397E+03</pdfrwt>
<totfact> 0.57074454E+04</totfact>
</mgrwt>
</event>
<event>
 7    0  0.4709932E-002  0.4551560E+03  0.7546771E-02  0.1026196E+00
         21   -1    0    0  502  501  0.00000000000E+00  0.00000000000E+00  0.14587347388E+03  0.14587347388E+03  0.00000000000E+00 0. -1.
         21   -1    0    0  501  502 -0.00000000000E+00 -0.00000000000E+00 -0.35504572221E+03  0.35504572221E+03  0.00000000000E+00 0. -1.
      99926    2    1    2    0    0  0.00000000000E+00  0.13322676296E-14 -0.20917224833E+03  0.50091919610E+03  0.45515602989E+03 0.  0.
      99925    2    3    3    0    0 -0.11317165362E+03  0.22094714661E+01 -0.13193079069E+03  0.31537551977E+03  0.26314117881E+03 0.  0.
         25    1    4    4    0    0 -0.71027610584E+02 -0.37403984558E+02 -0.67313197873E+02  0.16316419409E+03  0.12509000000E+03 0.  0.
         25    1    4    4    0    0 -0.42144043038E+02  0.39613456024E+02 -0.64617592816E+02  0.15221132567E+03  0.12509000000E+03 0.  0.
         25    1    3    3    0    0  0.11317165362E+03 -0.22094714661E+01 -0.77241457642E+02  0.18554367633E+03  0.12509000000E+03 0.  0.
<mgrwt>
<rscale>  2 0.45515603E+03</rscale>
<asrwt>0</asrwt>
<pdfrwt beam="1">  1       21 0.21451982E-01 0.45515603E+03</pdfrwt>
<pdfrwt beam="2">  1       21 0.52212606E-01 0.45515603E+03</pdfrwt>
<totfact> 0.65125435E+04</totfact>
</mgrwt>
</event>
<event>
 7    0  0.4709932E-002  0.4581267E+03  0.7546771E-02  0.1025326E+00
         21   -1    0    0  502  501  0.00000000000E+00  0.00000000000E+00  0.44640957920E+03  0.44640957920E+03  0.00000000000E+00 0.  1.
         21   -1    0    0  501  502 -0.00000000000E+00 -0.00000000000E+00 -0.11753782519E+03  0.11753782519E+03  0.00000000000E+00 0.  1.
      99926    2    1    2    0    0  0.00000000000E+00  0.00000000000E+00  0.32887175400E+03  0.56394740439E+03  0.45812666844E+03 0.  0.
      99925    2    3    3    0    0 -0.33765655086E+02 -0.10416869197E+03  0.15986744970E+03  0.32687948412E+03  0.26325151436E+03 0.  0.
         25    1    4    4    0    0 -0.12104355542E+02 -0.83030238834E+01  0.74697286074E+02  0.14643308463E+03  0.12509000000E+03 0.  0.
         25    1    3    3    0    0  0.33765655086E+02  0.10416869197E+03  0.16900430430E+03  0.23706792027E+03  0.12509000000E+03 0.  0.
         25    1    4    4    0    0 -0.21661299544E+02 -0.95865668082E+02  0.85170163630E+02  0.18044639949E+03  0.12509000000E+03 0.  0.
<mgrwt>
<rscale>  2 0.45812667E+03</rscale>
<asrwt>0</asrwt>
<pdfrwt beam="1">  1       21 0.65648467E-01 0.45812667E+03</pdfrwt>
<pdfrwt beam="2">  1       21 0.17284974E-01 0.45812667E+03</pdfrwt>
<totfact> 0.59469812E+04</totfact>
</mgrwt>
</event>
<event>
 7    0  0.4709932E-002  0.4495722E+03  0.7546771E-02  0.1027850E+00
         21   -1    0    0  502  501  0.00000000000E+00  0.00000000000E+00  0.20733797940E+03  0.20733797940E+03  0.00000000000E+00 0.  1.
         21   -1    0    0  501  502 -0.00000000000E+00 -0.00000000000E+00 -0.24370250707E+03  0.24370250707E+03  0.00000000000E+00 0.  1.
      99926    2    1    2    0    0  0.17763568394E-14  0.14210854715E-13 -0.36364527670E+02  0.45104048646E+03  0.44957217613E+03 0.  0.
      99925    2    3    3    0    0 -0.11088696004E+02 -0.10011084953E+03 -0.62135905534E+02  0.28838498120E+03  0.26298267101E+03 0.  0.
         25    1    4    4    0    0  0.28522501634E+02 -0.38289918913E+02 -0.10044886719E+02  0.13426860705E+03  0.12509000000E+03 0.  0.
         25    1    3    3    0    0  0.11088696004E+02  0.10011084953E+03  0.25771377864E+02  0.16265550526E+03  0.12509000000E+03 0.  0.
         25    1    4    4    0    0 -0.39611197638E+02 -0.61820930622E+02 -0.52091018815E+02  0.15411637415E+03  0.12509000000E+03 0.  0.
<mgrwt>
<rscale>  2 0.44957218E+03</rscale>
<asrwt>0</asrwt>
<pdfrwt beam="1">  1       21 0.30490879E-01 0.44957218E+03</pdfrwt>
<pdfrwt beam="2">  1       21 0.35838604E-01 0.44957218E+03</pdfrwt>
<totfact> 0.71900579E+04</totfact>
</mgrwt>
</event>
<event>
 7    0  0.4709932E-002  0.4561489E+03  0.7546771E-02  0.1025904E+00
         21   -1    0    0  502  501  0.00000000000E+00  0.00000000000E+00  0.26337392682E+02  0.26337392682E+02  0.00000000000E+00 0.  1.
         21   -1    0    0  501  502 -0.00000000000E+00 -0.00000000000E+00 -0.19750608539E+04  0.19750608539E+04  0.00000000000E+00 0.  1.
      99926    2    1    2    0    0 -0.14210854715E-13 -0.17763568394E-14 -0.19487234612E+04  0.20013982466E+04  0.45614889358E+03 0.  0.
      99925    2    3    3    0    0 -0.11323249972E+03  0.14259285493E+02 -0.11953359192E+04  0.12292161289E+04  0.26290569741E+03 0.  0.
         25    1    4    4    0    0 -0.51340903225E+02 -0.31647302810E+02 -0.53454471259E+03  0.55228887186E+03  0.12509000000E+03 0.  0.
         25    1    4    4    0    0 -0.61891596498E+02  0.45906588303E+02 -0.66079120657E+03  0.67692725706E+03  0.12509000000E+03 0.  0.
         25    1    3    3    0    0  0.11323249972E+03 -0.14259285493E+02 -0.75338754205E+03  0.77218211765E+03  0.12509000000E+03 0.  0.
<mgrwt>
<rscale>  2 0.45614889E+03</rscale>
<asrwt>0</asrwt>
<pdfrwt beam="1">  1       21 0.38731438E-02 0.45614889E+03</pdfrwt>
<pdfrwt beam="2">  1       21 0.29045029E+00 0.45614889E+03</pdfrwt>
<totfact> 0.13565445E+04</totfact>
</mgrwt>
</event>
<event>
 7    0  0.4709932E-002  0.4577587E+03  0.7546771E-02  0.1025433E+00
         21   -1    0    0  502  501  0.00000000000E+00  0.00000000000E+00  0.25420772076E+03  0.25420772076E+03  0.00000000000E+00 0. -1.
         21   -1    0    0  501  502 -0.00000000000E+00 -0.00000000000E+00 -0.20607463205E+03  0.20607463205E+03  0.00000000000E+00 0. -1.
      99926    2    1    2    0    0  0.00000000000E+00  0.00000000000E+00  0.48133088708E+02  0.46028235282E+03  0.45775872475E+03 0.  0.
      99925    2    3    3    0    0  0.62599970768E+02  0.69394883615E+01 -0.67032689229E+02  0.27896060192E+03  0.26336044343E+03 0.  0.
         25    1    4    4    0    0 -0.41125433021E+00  0.13986002066E+02 -0.59963488472E+01  0.12601286317E+03  0.12509000000E+03 0.  0.
         25    1    3    3    0    0 -0.62599970768E+02 -0.69394883615E+01  0.11516577794E+03  0.18132175089E+03  0.12509000000E+03 0.  0.
         25    1    4    4    0    0  0.63011225099E+02 -0.70465137047E+01 -0.61036340381E+02  0.15294773876E+03  0.12509000000E+03 0.  0.
<mgrwt>
<rscale>  2 0.45775872E+03</rscale>
<asrwt>0</asrwt>
<pdfrwt beam="1">  1       21 0.37383489E-01 0.45775872E+03</pdfrwt>
<pdfrwt beam="2">  1       21 0.30305093E-01 0.45775872E+03</pdfrwt>
<totfact> 0.66680692E+04</totfact>
</mgrwt>
</event>
<event>
 7    0  0.4709932E-002  0.4547167E+03  0.7546771E-02  0.1026325E+00
         21   -1    0    0  502  501  0.00000000000E+00  0.00000000000E+00  0.29194546318E+03  0.29194546318E+03  0.00000000000E+00 0. -1.
         21   -1    0    0  501  502 -0.00000000000E+00 -0.00000000000E+00 -0.17705983129E+03  0.17705983129E+03  0.00000000000E+00 0. -1.
      99926    2    1    2    0    0  0.00000000000E+00  0.00000000000E+00  0.11488563189E+03  0.46900529447E+03  0.45471667863E+03 0.  0.
      99925    2    3    3    0    0  0.83252993035E+02 -0.53741948649E+02  0.12760647451E+03  0.30891598867E+03  0.26329910335E+03 0.  0.
         25    1    3    3    0    0 -0.83252993035E+02  0.53741948649E+02 -0.12720842615E+02  0.16008930580E+03  0.12509000000E+03 0.  0.
         25    1    4    4    0    0  0.58597230974E+02 -0.10572387450E+02  0.27690358145E+02  0.14127871350E+03  0.12509000000E+03 0.  0.
         25    1    4    4    0    0  0.24655762061E+02 -0.43169561199E+02  0.99916116360E+02  0.16763727517E+03  0.12509000000E+03 0.  0.
<mgrwt>
<rscale>  2 0.45471668E+03</rscale>
<asrwt>0</asrwt>
<pdfrwt beam="1">  1       21 0.42933156E-01 0.45471668E+03</pdfrwt>
<pdfrwt beam="2">  1       21 0.26038210E-01 0.45471668E+03</pdfrwt>
<totfact> 0.67661737E+04</totfact>
</mgrwt>
</event>
<event>
 6    0  0.4709932E-002  0.4566714E+03  0.7546771E-02  0.1025751E+00
         21   -1    0    0  502  501  0.00000000000E+00  0.00000000000E+00  0.45934743733E+02  0.45934743733E+02  0.00000000000E+00 0.  1.
         21   -1    0    0  501  502 -0.00000000000E+00 -0.00000000000E+00 -0.11350272451E+04  0.11350272451E+04  0.00000000000E+00 0.  1.
      99926    2    1    2    0    0  0.00000000000E+00 -0.14210854715E-13 -0.10890925014E+04  0.11809619888E+04  0.45667137258E+03 0.  0.
         25    1    3    3    0    0  0.31509513144E+02 -0.50967761735E+02 -0.26480821077E+03  0.29893387019E+03  0.12509000000E+03 0.  0.
         25    1    3    3    0    0 -0.69789233372E+02  0.97474884868E+02 -0.41026902466E+03  0.44535387163E+03  0.12509000000E+03 0.  0.
         25    1    3    3    0    0  0.38279720229E+02 -0.46507123133E+02 -0.41401526593E+03  0.43667424701E+03  0.12509000000E+03 0.  0.
<mgrwt>
<rscale>  2 0.45667137E+03</rscale>
<asrwt>0</asrwt>
<pdfrwt beam="1">  1       21 0.67551087E-02 0.45667137E+03</pdfrwt>
<pdfrwt beam="2">  1       21 0.16691579E+00 0.45667137E+03</pdfrwt>
<totfact> 0.32342024E+04</totfact>
</mgrwt>
</event>
<event>
 7    0  0.4709932E-002  0.4522301E+03  0.7546771E-02  0.1027059E+00
         21   -1    0    0  502  501  0.00000000000E+00  0.00000000000E+00  0.41288165233E+02  0.41288165233E+02  0.00000000000E+00 0.  1.
         21   -1    0    0  501  502 -0.00000000000E+00 -0.00000000000E+00 -0.12383214700E+04  0.12383214700E+04  0.00000000000E+00 0.  1.
      99926    2    1    2    0    0  0.00000000000E+00  0.00000000000E+00 -0.11970333048E+04  0.12796096353E+04  0.45223012490E+03 0.  0.
      99925    2    3    3    0    0  0.56213954272E+02  0.80403488306E+02 -0.61035678555E+03  0.67177612523E+03  0.26291258466E+03 0.  0.
         25    1    4    4    0    0  0.37857473787E+02  0.16418918508E+02 -0.21904841116E+03  0.25560219823E+03  0.12509000000E+03 0.  0.
         25    1    4    4    0    0  0.18356480485E+02  0.63984569798E+02 -0.39130837439E+03  0.41617392700E+03  0.12509000000E+03 0.  0.
         25    1    3    3    0    0 -0.56213954272E+02 -0.80403488306E+02 -0.58667651927E+03  0.60783351006E+03  0.12509000000E+03 0.  0.
<mgrwt>
<rscale>  2 0.45223012E+03</rscale>
<asrwt>0</asrwt>
<pdfrwt beam="1">  1       21 0.60717898E-02 0.45223012E+03</pdfrwt>
<pdfrwt beam="2">  1       21 0.18210608E+00 0.45223012E+03</pdfrwt>
<totfact> 0.30361703E+04</totfact>
</mgrwt>
</event>
<event>
 7    0  0.4709932E-002  0.4594000E+03  0.7546771E-02  0.1024955E+00
         21   -1    0    0  502  501  0.00000000000E+00  0.00000000000E+00  0.10244643016E+03  0.10244643016E+03  0.00000000000E+00 0. -1.
         21   -1    0    0  501  502 -0.00000000000E+00 -0.00000000000E+00 -0.51502136131E+03  0.51502136131E+03  0.00000000000E+00 0. -1.
      99926    2    1    2    0    0  0.00000000000E+00  0.17763568394E-14 -0.41257493115E+03  0.61746779147E+03  0.45940004320E+03 0.  0.
      99925    2    3    3    0    0 -0.90027838088E+02 -0.13431459434E+02 -0.35795123131E+03  0.45340477792E+03  0.26298553745E+03 0.  0.
         25    1    4    4    0    0 -0.48121824182E+02 -0.40318270139E+02 -0.14552712066E+03  0.20190820641E+03  0.12509000000E+03 0.  0.
         25    1    4    4    0    0 -0.41906013906E+02  0.26886810706E+02 -0.21242411065E+03  0.25149657150E+03  0.12509000000E+03 0.  0.
         25    1    3    3    0    0  0.90027838088E+02  0.13431459434E+02 -0.54623699842E+02  0.16406301356E+03  0.12509000000E+03 0.  0.
<mgrwt>
<rscale>  2 0.45940004E+03</rscale>
<asrwt>0</asrwt>
<pdfrwt beam="1">  1       21 0.15065651E-01 0.45940004E+03</pdfrwt>
<pdfrwt beam="2">  1       21 0.75738436E-01 0.45940004E+03</pdfrwt>
<totfact> 0.55656411E+04</totfact>
</mgrwt>
</event>
<event>
 7    0  0.4709932E-002  0.4520020E+03  0.7546771E-02  0.1027127E+00
         21   -1    0    0  502  501  0.00000000000E+00  0.00000000000E+00  0.85227639380E+02  0.85227639380E+02  0.00000000000E+00 0.  1.
         21   -1    0    0  501  502 -0.00000000000E+00 -0.00000000000E+00 -0.59929451790E+03  0.59929451790E+03  0.00000000000E+00 0.  1.
      99926    2    1    2    0    0  0.00000000000E+00  0.00000000000E+00 -0.51406687851E+03  0.68452215728E+03  0.45200202236E+03 0.  0.
      99925    2    3    3    0    0  0.80948509099E+01  0.40901592281E+02 -0.16969024545E+03  0.31576581447E+03  0.26301103270E+03 0.  0.
         25    1    4    4    0    0 -0.25551046990E+01 -0.19628600469E+02 -0.73616018952E+02  0.14648766795E+03  0.12509000000E+03 0.  0.
         25    1    4    4    0    0  0.10649955609E+02  0.60530192750E+02 -0.96074226500E+02  0.16927814651E+03  0.12509000000E+03 0.  0.
         25    1    3    3    0    0 -0.80948509099E+01 -0.40901592281E+02 -0.34437663306E+03  0.36875634281E+03  0.12509000000E+03 0.  0.
<mgrwt>
<rscale>  2 0.45200202E+03</rscale>
<asrwt>0</asrwt>
<pdfrwt beam="1">  1       21 0.12533476E-01 0.45200202E+03</pdfrwt>
<pdfrwt beam="2">  1       21 0.88131550E-01 0.45200202E+03</pdfrwt>
<totfact> 0.55039285E+04</totfact>
</mgrwt>
</event>
<event>
 7    0  0.4709932E-002  0.4573360E+03  0.7546771E-02  0.1025557E+00
         21   -1    0    0  502  501  0.00000000000E+00  0.00000000000E+00  0.20291645613E+03  0.20291645613E+03  0.00000000000E+00 0. -1.
         21   -1    0    0  501  502 -0.00000000000E+00 -0.00000000000E+00 -0.25768765321E+03  0.25768765321E+03  0.00000000000E+00 0. -1.
      99926    2    1    2    0    0  0.71054273576E-14  0.14210854715E-13 -0.54771197071E+02  0.46060410934E+03  0.45733604878E+03 0.  0.
      99925    2    3    3    0    0 -0.55837006068E+02 -0.82701815196E+02 -0.92616499949E+02  0.29617437805E+03  0.26302867651E+03 0.  0.
         25    1    4    4    0    0 -0.59943837755E+02 -0.27318545376E+02 -0.68898542500E+02  0.15727073429E+03  0.12509000000E+03 0.  0.
         25    1    4    4    0    0  0.41068316870E+01 -0.55383269820E+02 -0.23717957449E+02  0.13890364375E+03  0.12509000000E+03 0.  0.
         25    1    3    3    0    0  0.55837006068E+02  0.82701815196E+02  0.37845302878E+02  0.16442973129E+03  0.12509000000E+03 0.  0.
<mgrwt>
<rscale>  2 0.45733605E+03</rscale>
<asrwt>0</asrwt>
<pdfrwt beam="1">  1       21 0.29840655E-01 0.45733605E+03</pdfrwt>
<pdfrwt beam="2">  1       21 0.37895243E-01 0.45733605E+03</pdfrwt>
<totfact> 0.66881799E+04</totfact>
</mgrwt>
</event>
<event>
 7    0  0.4709932E-002  0.4482773E+03  0.7546771E-02  0.1028237E+00
         21   -1    0    0  502  501  0.00000000000E+00  0.00000000000E+00  0.28170712642E+03  0.28170712642E+03  0.00000000000E+00 0.  1.
         21   -1    0    0  501  502 -0.00000000000E+00 -0.00000000000E+00 -0.17833461212E+03  0.17833461212E+03  0.00000000000E+00 0.  1.
      99926    2    1    2    0    0  0.35527136788E-14  0.00000000000E+00  0.10337251429E+03  0.46004173854E+03  0.44827728527E+03 0.  0.
      99925    2    3    3    0    0  0.24958896452E+02  0.17582626312E+02 -0.39469589170E+02  0.26773087072E+03  0.26303968409E+03 0.  0.
         25    1    4    4    0    0 -0.25938685266E+02  0.57233111847E+00 -0.78634465839E+01  0.12799408130E+03  0.12509000000E+03 0.  0.
         25    1    3    3    0    0 -0.24958896452E+02 -0.17582626312E+02  0.14284210346E+03  0.19231086782E+03  0.12509000000E+03 0.  0.
         25    1    4    4    0    0  0.50897581718E+02  0.17010295194E+02 -0.31606142586E+02  0.13973678942E+03  0.12509000000E+03 0.  0.
<mgrwt>
<rscale>  2 0.44827729E+03</rscale>
<asrwt>0</asrwt>
<pdfrwt beam="1">  1       21 0.41427519E-01 0.44827729E+03</pdfrwt>
<pdfrwt beam="2">  1       21 0.26225678E-01 0.44827729E+03</pdfrwt>
<totfact> 0.71944417E+04</totfact>
</mgrwt>
</event>
<event>
 7    0  0.4709932E-002  0.4504762E+03  0.7546771E-02  0.1027580E+00
         21   -1    0    0  502  501  0.00000000000E+00  0.00000000000E+00  0.16849184478E+03  0.16849184478E+03  0.00000000000E+00 0. -1.
         21   -1    0    0  501  502 -0.00000000000E+00 -0.00000000000E+00 -0.30109591240E+03  0.30109591240E+03  0.00000000000E+00 0. -1.
      99926    2    1    2    0    0  0.00000000000E+00  0.00000000000E+00 -0.13260406762E+03  0.46958775718E+03  0.45047621796E+03 0.  0.
      99925    2    3    3    0    0  0.26479405896E+02  0.41078965105E+02  0.17475192667E+02  0.26819279007E+03  0.26312230991E+03 0.  0.
         25    1    4    4    0    0  0.24379740312E+02  0.30535535722E+02  0.46987513295E+02  0.13921970114E+03  0.12509000000E+03 0.  0.
         25    1    4    4    0    0  0.20996655834E+01  0.10543429383E+02 -0.29512320628E+02  0.12897308893E+03  0.12509000000E+03 0.  0.
         25    1    3    3    0    0 -0.26479405896E+02 -0.41078965105E+02 -0.15007926028E+03  0.20139496711E+03  0.12509000000E+03 0.  0.
<mgrwt>
<rscale>  2 0.45047622E+03</rscale>
<asrwt>0</asrwt>
<pdfrwt beam="1">  1       21 0.24778213E-01 0.45047622E+03</pdfrwt>
<pdfrwt beam="2">  1       21 0.44278810E-01 0.45047622E+03</pdfrwt>
<totfact> 0.69943326E+04</totfact>
</mgrwt>
</event>
<event>
 7    0  0.4709932E-002  0.4523481E+03  0.7546771E-02  0.1027024E+00
         21   -1    0    0  502  501  0.00000000000E+00  0.00000000000E+00  0.26111143101E+03  0.26111143101E+03  0.00000000000E+00 0.  1.
         21   -1    0    0  501  502 -0.00000000000E+00 -0.00000000000E+00 -0.19591142179E+03  0.19591142179E+03  0.00000000000E+00 0.  1.
      99926    2    1    2    0    0 -0.71054273576E-14 -0.71054273576E-14  0.65200009224E+02  0.45702285280E+03  0.45234814776E+03 0.  0.
      99925    2    3    3    0    0 -0.60857994830E+02 -0.37319771086E+02 -0.44511042635E+02  0.27596903802E+03  0.26283305762E+03 0.  0.
         25    1    4    4    0    0 -0.13059516307E+02 -0.61652706979E+01 -0.56387352411E+02  0.13796957324E+03  0.12509000000E+03 0.  0.
         25    1    3    3    0    0  0.60857994830E+02  0.37319771086E+02  0.10971105186E+03  0.18105381479E+03  0.12509000000E+03 0.  0.
         25    1    4    4    0    0 -0.47798478523E+02 -0.31154500388E+02  0.11876309776E+02  0.13799946477E+03  0.12509000000E+03 0.  0.
<mgrwt>
<rscale>  2 0.45234815E+03</rscale>
<asrwt>0</asrwt>
<pdfrwt beam="1">  1       21 0.38398740E-01 0.45234815E+03</pdfrwt>
<pdfrwt beam="2">  1       21 0.28810503E-01 0.45234815E+03</pdfrwt>
<totfact> 0.69863903E+04</totfact>
</mgrwt>
</event>
<event>
 7    0  0.4709932E-002  0.4548864E+03  0.7546771E-02  0.1026275E+00
         21   -1    0    0  502  501  0.00000000000E+00  0.00000000000E+00  0.29919614511E+03  0.29919614511E+03  0.00000000000E+00 0. -1.
         21   -1    0    0  501  502 -0.00000000000E+00 -0.00000000000E+00 -0.17289794481E+03  0.17289794481E+03  0.00000000000E+00 0. -1.
      99926    2    1    2    0    0  0.00000000000E+00 -0.14210854715E-13  0.12629820030E+03  0.47209408992E+03  0.45488635321E+03 0.  0.
      99925    2    3    3    0    0  0.16556634892E+02 -0.10675380028E+03  0.44846872234E+02  0.28783252861E+03  0.26299396675E+03 0.  0.
         25    1    4    4    0    0  0.11795048024E+02 -0.10834902879E+02  0.28430939453E+02  0.12927623407E+03  0.12509000000E+03 0.  0.
         25    1    3    3    0    0 -0.16556634892E+02  0.10675380028E+03  0.81451328062E+02  0.18426156131E+03  0.12509000000E+03 0.  0.
         25    1    4    4    0    0  0.47615868677E+01 -0.95918897402E+02  0.16415932781E+02  0.15855629454E+03  0.12509000000E+03 0.  0.
<mgrwt>
<rscale>  2 0.45488635E+03</rscale>
<asrwt>0</asrwt>
<pdfrwt beam="1">  1       21 0.43999433E-01 0.45488635E+03</pdfrwt>
<pdfrwt beam="2">  1       21 0.25426168E-01 0.45488635E+03</pdfrwt>
<totfact> 0.67341018E+04</totfact>
</mgrwt>
</event>
<event>
 7    0  0.4709932E-002  0.4535709E+03  0.7546771E-02  0.1026662E+00
         21   -1    0    0  502  501  0.00000000000E+00  0.00000000000E+00  0.48104415836E+03  0.48104415836E+03  0.00000000000E+00 0.  1.
         21   -1    0    0  501  502 -0.00000000000E+00 -0.00000000000E+00 -0.10691668673E+03  0.10691668673E+03  0.00000000000E+00 0.  1.
      99926    2    1    2    0    0  0.00000000000E+00  0.00000000000E+00  0.37412747162E+03  0.58796084509E+03  0.45357093198E+03 0.  0.
      99925    2    3    3    0    0 -0.11488274370E+02  0.50258083270E+02  0.36415371111E+03  0.45229640841E+03  0.26326082192E+03 0.  0.
         25    1    4    4    0    0  0.24995542152E+02  0.62309356821E+01  0.14173871147E+03  0.19079038791E+03  0.12509000000E+03 0.  0.
         25    1    4    4    0    0 -0.36483816522E+02  0.44027147588E+02  0.22241499964E+03  0.26150602050E+03  0.12509000000E+03 0.  0.
         25    1    3    3    0    0  0.11488274370E+02 -0.50258083270E+02  0.99737605099E+01  0.13566443668E+03  0.12509000000E+03 0.  0.
<mgrwt>
<rscale>  2 0.45357093E+03</rscale>
<asrwt>0</asrwt>
<pdfrwt beam="1">  1       21 0.70741787E-01 0.45357093E+03</pdfrwt>
<pdfrwt beam="2">  1       21 0.15723042E-01 0.45357093E+03</pdfrwt>
<totfact> 0.60101484E+04</totfact>
</mgrwt>
</event>
<event>
 6    0  0.4709932E-002  0.4384702E+03  0.7546771E-02  0.1031217E+00
         21   -1    0    0  502  501  0.00000000000E+00  0.00000000000E+00  0.89807328627E+03  0.89807328627E+03  0.00000000000E+00 0. -1.
         21   -1    0    0  501  502 -0.00000000000E+00 -0.00000000000E+00 -0.53519053040E+02  0.53519053040E+02  0.00000000000E+00 0. -1.
      99926    2    1    2    0    0  0.35527136788E-14  0.00000000000E+00  0.84455423323E+03  0.95159233931E+03  0.43847021264E+03 0.  0.
         25    1    3    3    0    0  0.31168641022E+02 -0.60052623207E+02  0.16589109895E+03  0.21850667392E+03  0.12509000000E+03 0.  0.
         25    1    3    3    0    0  0.83893906776E+01  0.10185591240E+02  0.21990154780E+03  0.25333441726E+03  0.12509000000E+03 0.  0.
         25    1    3    3    0    0 -0.39558031700E+02  0.49867031967E+02  0.45876158649E+03  0.47975124813E+03  0.12509000000E+03 0.  0.
<mgrwt>
<rscale>  2 0.43847021E+03</rscale>
<asrwt>0</asrwt>
<pdfrwt beam="1">  1       21 0.13206959E+00 0.43847021E+03</pdfrwt>
<pdfrwt beam="2">  1       21 0.78704495E-02 0.43847021E+03</pdfrwt>
<totfact> 0.46844466E+04</totfact>
</mgrwt>
</event>
<event>
 7    0  0.4709932E-002  0.4558517E+03  0.7546771E-02  0.1025991E+00
         21   -1    0    0  502  501  0.00000000000E+00  0.00000000000E+00  0.13620232034E+03  0.13620232034E+03  0.00000000000E+00 0.  1.
         21   -1    0    0  501  502 -0.00000000000E+00 -0.00000000000E+00 -0.38141937300E+03  0.38141937300E+03  0.00000000000E+00 0.  1.
      99926    2    1    2    0    0  0.00000000000E+00 -0.14210854715E-13 -0.24521705265E+03  0.51762169334E+03  0.45585174619E+03 0.  0.
      99925    2    3    3    0    0  0.58973548523E+02  0.81769383402E+02 -0.94335657718E+02  0.29722020758E+03  0.26320433885E+03 0.  0.
         25    1    4    4    0    0  0.33834829679E+02  0.16881924467E+02 -0.99572488903E+01  0.13105895612E+03  0.12509000000E+03 0.  0.
         25    1    4    4    0    0  0.25138718844E+02  0.64887458935E+02 -0.84378408827E+02  0.16616125147E+03  0.12509000000E+03 0.  0.
         25    1    3    3    0    0 -0.58973548523E+02 -0.81769383402E+02 -0.15088139494E+03  0.22040148576E+03  0.12509000000E+03 0.  0.
<mgrwt>
<rscale>  2 0.45585175E+03</rscale>
<asrwt>0</asrwt>
<pdfrwt beam="1">  1       21 0.20029753E-01 0.45585175E+03</pdfrwt>
<pdfrwt beam="2">  1       21 0.56091084E-01 0.45585175E+03</pdfrwt>
<totfact> 0.63618564E+04</totfact>
</mgrwt>
</event>
<event>
 7    0  0.4709932E-002  0.4198238E+03  0.7546771E-02  0.1037124E+00
         21   -1    0    0  502  501  0.00000000000E+00  0.00000000000E+00  0.10038863308E+04  0.10038863308E+04  0.00000000000E+00 0.  1.
         21   -1    0    0  501  502 -0.00000000000E+00 -0.00000000000E+00 -0.43892429242E+02  0.43892429242E+02  0.00000000000E+00 0.  1.
      99926    2    1    2    0    0  0.71054273576E-14  0.71054273576E-14  0.95999390155E+03  0.10477787600E+04  0.41982381896E+03 0.  0.
      99925    2    3    3    0    0 -0.45497195073E+02 -0.60123546754E+02  0.61286069384E+03  0.67117046535E+03  0.26303370100E+03 0.  0.
         25    1    3    3    0    0  0.45497195073E+02  0.60123546754E+02  0.34713320771E+03  0.37660829469E+03  0.12509000000E+03 0.  0.
         25    1    4    4    0    0 -0.19417372189E+02  0.10294665039E+02  0.30963519541E+03  0.33467069906E+03  0.12509000000E+03 0.  0.
         25    1    4    4    0    0 -0.26079822884E+02 -0.70418211793E+02  0.30322549843E+03  0.33649976629E+03  0.12509000000E+03 0.  0.
<mgrwt>
<rscale>  2 0.41982382E+03</rscale>
<asrwt>0</asrwt>
<pdfrwt beam="1">  1       21 0.14763033E+00 0.41982382E+03</pdfrwt>
<pdfrwt beam="2">  1       21 0.64547696E-02 0.41982382E+03</pdfrwt>
<totfact> 0.49654613E+04</totfact>
</mgrwt>
</event>
<event>
 7    0  0.4709932E-002  0.4665347E+03  0.7546771E-02  0.1022903E+00
         21   -1    0    0  502  501  0.00000000000E+00  0.00000000000E+00  0.22566256124E+03  0.22566256124E+03  0.00000000000E+00 0.  1.
         21   -1    0    0  501  502 -0.00000000000E+00 -0.00000000000E+00 -0.24112845031E+03  0.24112845031E+03  0.00000000000E+00 0.  1.
      99926    2    1    2    0    0 -0.71054273576E-14  0.00000000000E+00 -0.15465889070E+02  0.46679101156E+03  0.46653473048E+03 0.  0.
      99925    2    3    3    0    0  0.54936640277E+02  0.24274540470E+02  0.98500289322E+02  0.28722741369E+03  0.26303990652E+03 0.  0.
         25    1    3    3    0    0 -0.54936640277E+02 -0.24274540470E+02 -0.11396617839E+03  0.17956359786E+03  0.12509000000E+03 0.  0.
         25    1    4    4    0    0  0.17828686882E+02  0.30458969957E+02  0.11929482164E+02  0.13051985125E+03  0.12509000000E+03 0.  0.
         25    1    4    4    0    0  0.37107953395E+02 -0.61844294872E+01  0.86570807159E+02  0.15670756244E+03  0.12509000000E+03 0.  0.
<mgrwt>
<rscale>  2 0.46653473E+03</rscale>
<asrwt>0</asrwt>
<pdfrwt beam="1">  1       21 0.33185671E-01 0.46653473E+03</pdfrwt>
<pdfrwt beam="2">  1       21 0.35460066E-01 0.46653473E+03</pdfrwt>
<totfact> 0.61803548E+04</totfact>
</mgrwt>
</event>
<event>
 7    0  0.4709932E-002  0.4728855E+03  0.7546771E-02  0.1021109E+00
         21   -1    0    0  502  501  0.00000000000E+00  0.00000000000E+00  0.11286639605E+03  0.11286639605E+03  0.00000000000E+00 0. -1.
         21   -1    0    0  501  502 -0.00000000000E+00 -0.00000000000E+00 -0.49532166462E+03  0.49532166462E+03  0.00000000000E+00 0. -1.
      99926    2    1    2    0    0  0.00000000000E+00  0.00000000000E+00 -0.38245526857E+03  0.60818806067E+03  0.47288548791E+03 0.  0.
      99925    2    3    3    0    0 -0.10297226770E+02 -0.89162774451E+02 -0.35679880713E+03  0.45210540519E+03  0.26275059545E+03 0.  0.
         25    1    4    4    0    0 -0.42263344911E+01 -0.26584336154E+02 -0.11174775511E+03  0.16988130475E+03  0.12509000000E+03 0.  0.
         25    1    3    3    0    0  0.10297226770E+02  0.89162774451E+02 -0.25656461444E+02  0.15608265548E+03  0.12509000000E+03 0.  0.
         25    1    4    4    0    0 -0.60708922784E+01 -0.62578438297E+02 -0.24505105202E+03  0.28222410044E+03  0.12509000000E+03 0.  0.
<mgrwt>
<rscale>  2 0.47288549E+03</rscale>
<asrwt>0</asrwt>
<pdfrwt beam="1">  1       21 0.16598000E-01 0.47288549E+03</pdfrwt>
<pdfrwt beam="2">  1       21 0.72841421E-01 0.47288549E+03</pdfrwt>
<totfact> 0.50634226E+04</totfact>
</mgrwt>
</event>
<event>
 7    0  0.4709932E-002  0.4519067E+03  0.7546771E-02  0.1027155E+00
         21   -1    0    0  502  501  0.00000000000E+00  0.00000000000E+00  0.18907810607E+03  0.18907810607E+03  0.00000000000E+00 0. -1.
         21   -1    0    0  501  502 -0.00000000000E+00 -0.00000000000E+00 -0.27002021824E+03  0.27002021824E+03  0.00000000000E+00 0. -1.
      99926    2    1    2    0    0  0.00000000000E+00  0.00000000000E+00 -0.80942112178E+02  0.45909832431E+03  0.45190667826E+03 0.  0.
      99925    2    3    3    0    0  0.95620338663E+02  0.52474416127E+02 -0.67732049046E+02  0.29260860276E+03  0.26293601964E+03 0.  0.
         25    1    4    4    0    0  0.70357978663E+02  0.40582029173E+02 -0.33628043011E+01  0.14918432493E+03  0.12509000000E+03 0.  0.
         25    1    3    3    0    0 -0.95620338663E+02 -0.52474416127E+02 -0.13210063132E+02  0.16648972155E+03  0.12509000000E+03 0.  0.
         25    1    4    4    0    0  0.25262360000E+02  0.11892386954E+02 -0.64369244745E+02  0.14342427782E+03  0.12509000000E+03 0.  0.
<mgrwt>
<rscale>  2 0.45190668E+03</rscale>
<asrwt>0</asrwt>
<pdfrwt beam="1">  1       21 0.27805604E-01 0.45190668E+03</pdfrwt>
<pdfrwt beam="2">  1       21 0.39708855E-01 0.45190668E+03</pdfrwt>
<totfact> 0.69954886E+04</totfact>
</mgrwt>
</event>
<event>
 7    0  0.4709932E-002  0.4533919E+03  0.7546771E-02  0.1026715E+00
         21   -1    0    0  502  501  0.00000000000E+00  0.00000000000E+00  0.48535084837E+03  0.48535084837E+03  0.00000000000E+00 0.  1.
         21   -1    0    0  501  502 -0.00000000000E+00 -0.00000000000E+00 -0.10588435578E+03  0.10588435578E+03  0.00000000000E+00 0.  1.
      99926    2    1    2    0    0  0.00000000000E+00  0.00000000000E+00  0.37946649259E+03  0.59123520415E+03  0.45339193600E+03 0.  0.
      99925    2    3    3    0    0 -0.34807984232E+01 -0.12470809031E+02  0.94618723787E+02  0.27986180046E+03  0.26306327647E+03 0.  0.
         25    1    4    4    0    0  0.23783576342E+01 -0.26734019798E+01  0.90042548308E+02  0.15416864879E+03  0.12509000000E+03 0.  0.
         25    1    3    3    0    0  0.34807984232E+01  0.12470809031E+02  0.28484776881E+03  0.31137340370E+03  0.12509000000E+03 0.  0.
         25    1    4    4    0    0 -0.58591560574E+01 -0.97974070514E+01  0.45761754787E+01  0.12569315167E+03  0.12509000000E+03 0.  0.
<mgrwt>
<rscale>  2 0.45339194E+03</rscale>
<asrwt>0</asrwt>
<pdfrwt beam="1">  1       21 0.71375124E-01 0.45339194E+03</pdfrwt>
<pdfrwt beam="2">  1       21 0.15571229E-01 0.45339194E+03</pdfrwt>
<totfact> 0.59979676E+04</totfact>
</mgrwt>
</event>
<event>
 7    0  0.4709932E-002  0.4588704E+03  0.7546771E-02  0.1025109E+00
         21   -1    0    0  502  501  0.00000000000E+00  0.00000000000E+00  0.15367377088E+03  0.15367377088E+03  0.00000000000E+00 0. -1.
         21   -1    0    0  501  502 -0.00000000000E+00 -0.00000000000E+00 -0.34254716978E+03  0.34254716978E+03  0.00000000000E+00 0. -1.
      99926    2    1    2    0    0  0.00000000000E+00  0.00000000000E+00 -0.18887339890E+03  0.49622094067E+03  0.45887041869E+03 0.  0.
      99925    2    3    3    0    0 -0.34155151133E+02  0.67609595707E+02 -0.22351964356E+02  0.27460296296E+03  0.26300103645E+03 0.  0.
         25    1    3    3    0    0  0.34155151133E+02 -0.67609595707E+02 -0.16652143454E+03  0.22161797771E+03  0.12509000000E+03 0.  0.
         25    1    4    4    0    0 -0.36885408785E+02  0.15808210699E+02  0.19624506087E+02  0.13282718941E+03  0.12509000000E+03 0.  0.
         25    1    4    4    0    0  0.27302576518E+01  0.51801385009E+02 -0.41976470443E+02  0.14177577355E+03  0.12509000000E+03 0.  0.
<mgrwt>
<rscale>  2 0.45887042E+03</rscale>
<asrwt>0</asrwt>
<pdfrwt beam="1">  1       21 0.22599084E-01 0.45887042E+03</pdfrwt>
<pdfrwt beam="2">  1       21 0.50374583E-01 0.45887042E+03</pdfrwt>
<totfact> 0.63561441E+04</totfact>
</mgrwt>
</event>
<event>
 7    0  0.4709932E-002  0.4285212E+03  0.7546771E-02  0.1034328E+00
         21   -1    0    0  502  501  0.00000000000E+00  0.00000000000E+00  0.19781753077E+04  0.19781753077E+04  0.00000000000E+00 0. -1.
         21   -1    0    0  501  502 -0.00000000000E+00 -0.00000000000E+00 -0.23207050926E+02  0.23207050926E+02  0.00000000000E+00 0. -1.
      99926    2    1    2    0    0  0.00000000000E+00  0.00000000000E+00  0.19549682568E+04  0.20013823586E+04  0.42852124852E+03 0.  0.
      99925    2    3    3    0    0  0.78134041456E+02 -0.36189968023E+02  0.12646699081E+04  0.12945768971E+04  0.26291581110E+03 0.  0.
         25    1    4    4    0    0  0.50809083363E+02 -0.50582183949E+02  0.77130486737E+03  0.78466478627E+03  0.12509000000E+03 0.  0.
         25    1    3    3    0    0 -0.78134041456E+02  0.36189968023E+02  0.69029834868E+03  0.70680546157E+03  0.12509000000E+03 0.  0.
         25    1    4    4    0    0  0.27324958093E+02  0.14392215926E+02  0.49336504074E+03  0.50991211079E+03  0.12509000000E+03 0.  0.
<mgrwt>
<rscale>  2 0.42852125E+03</rscale>
<asrwt>0</asrwt>
<pdfrwt beam="1">  1       21 0.29090802E+00 0.42852125E+03</pdfrwt>
<pdfrwt beam="2">  1       21 0.34128030E-02 0.42852125E+03</pdfrwt>
<totfact> 0.16903925E+04</totfact>
</mgrwt>
</event>
<event>
 7    0  0.4709932E-002  0.4530285E+03  0.7546771E-02  0.1026823E+00
         21   -1    0    0  502  501  0.00000000000E+00  0.00000000000E+00  0.23608970108E+03  0.23608970108E+03  0.00000000000E+00 0. -1.
         21   -1    0    0  501  502 -0.00000000000E+00 -0.00000000000E+00 -0.21732719388E+03  0.21732719388E+03  0.00000000000E+00 0. -1.
      99926    2    1    2    0    0  0.14210854715E-13  0.00000000000E+00  0.18762507202E+02  0.45341689496E+03  0.45302852996E+03 0.  0.
      99925    2    3    3    0    0  0.85552073453E+02  0.67166574336E+02  0.35554394977E+02  0.28680362546E+03  0.26298611863E+03 0.  0.
         25    1    4    4    0    0  0.33195150529E+02  0.73096681764E+02  0.24225827923E+02  0.15059695130E+03  0.12509000000E+03 0.  0.
         25    1    4    4    0    0  0.52356922924E+02 -0.59301074274E+01  0.11328567053E+02  0.13620667415E+03  0.12509000000E+03 0.  0.
         25    1    3    3    0    0 -0.85552073453E+02 -0.67166574336E+02 -0.16791887774E+02  0.16661326951E+03  0.12509000000E+03 0.  0.
<mgrwt>
<rscale>  2 0.45302853E+03</rscale>
<asrwt>0</asrwt>
<pdfrwt beam="1">  1       21 0.34719074E-01 0.45302853E+03</pdfrwt>
<pdfrwt beam="2">  1       21 0.31959881E-01 0.45302853E+03</pdfrwt>
<totfact> 0.69752725E+04</totfact>
</mgrwt>
</event>
<event>
 7    0  0.4709932E-002  0.4548343E+03  0.7546771E-02  0.1026290E+00
         21   -1    0    0  502  501  0.00000000000E+00  0.00000000000E+00  0.28637664019E+03  0.28637664019E+03  0.00000000000E+00 0. -1.
         21   -1    0    0  501  502 -0.00000000000E+00 -0.00000000000E+00 -0.18059630117E+03  0.18059630117E+03  0.00000000000E+00 0. -1.
      99926    2    1    2    0    0 -0.14210854715E-13  0.00000000000E+00  0.10578033902E+03  0.46697294136E+03  0.45483430812E+03 0.  0.
      99925    2    3    3    0    0  0.87216722745E+02 -0.64593806053E+02  0.34328450132E+02  0.28660665562E+03  0.26303196774E+03 0.  0.
         25    1    3    3    0    0 -0.87216722745E+02  0.64593806053E+02  0.71451888885E+02  0.18036628574E+03  0.12509000000E+03 0.  0.
         25    1    4    4    0    0  0.79130978943E+02 -0.56675608260E+02  0.27106141143E+02  0.16079828167E+03  0.12509000000E+03 0.  0.
         25    1    4    4    0    0  0.80857438020E+01 -0.79181977937E+01  0.72223089891E+01  0.12580837395E+03  0.12509000000E+03 0.  0.
<mgrwt>
<rscale>  2 0.45483431E+03</rscale>
<asrwt>0</asrwt>
<pdfrwt beam="1">  1       21 0.42114212E-01 0.45483431E+03</pdfrwt>
<pdfrwt beam="2">  1       21 0.26558280E-01 0.45483431E+03</pdfrwt>
<totfact> 0.67750752E+04</totfact>
</mgrwt>
</event>
<event>
 7    0  0.4709932E-002  0.4676858E+03  0.7546771E-02  0.1022575E+00
         21   -1    0    0  502  501  0.00000000000E+00  0.00000000000E+00  0.91452004591E+03  0.91452004591E+03  0.00000000000E+00 0. -1.
         21   -1    0    0  501  502 -0.00000000000E+00 -0.00000000000E+00 -0.59793655054E+02  0.59793655054E+02  0.00000000000E+00 0. -1.
      99926    2    1    2    0    0 -0.44408920985E-15 -0.14210854715E-13  0.85472639085E+03  0.97431370096E+03  0.46768577556E+03 0.  0.
      99925    2    3    3    0    0  0.21944693516E+01  0.84651440330E+02  0.72264784684E+03  0.77365744780E+03  0.26297386552E+03 0.  0.
         25    1    4    4    0    0 -0.32473521442E+02  0.53770062682E+02  0.42537245379E+03  0.44781132386E+03  0.12509000000E+03 0.  0.
         25    1    4    4    0    0  0.34667990793E+02  0.30881377648E+02  0.29727539305E+03  0.32584612394E+03  0.12509000000E+03 0.  0.
         25    1    3    3    0    0 -0.21944693516E+01 -0.84651440330E+02  0.13207854402E+03  0.20065625317E+03  0.12509000000E+03 0.  0.
<mgrwt>
<rscale>  2 0.46768578E+03</rscale>
<asrwt>0</asrwt>
<pdfrwt beam="1">  1       21 0.13448823E+00 0.46768578E+03</pdfrwt>
<pdfrwt beam="2">  1       21 0.87931851E-02 0.46768578E+03</pdfrwt>
<totfact> 0.36422960E+04</totfact>
</mgrwt>
</event>
<event>
 7    0  0.4709932E-002  0.4559803E+03  0.7546771E-02  0.1025954E+00
         21   -1    0    0  502  501  0.00000000000E+00  0.00000000000E+00  0.51323198054E+02  0.51323198054E+02  0.00000000000E+00 0. -1.
         21   -1    0    0  501  502 -0.00000000000E+00 -0.00000000000E+00 -0.10127877628E+04  0.10127877628E+04  0.00000000000E+00 0. -1.
      99926    2    1    2    0    0  0.00000000000E+00  0.00000000000E+00 -0.96146456471E+03  0.10641109608E+04  0.45598029315E+03 0.  0.
      99925    2    3    3    0    0  0.61612753199E+02  0.90030602686E+02 -0.68237681324E+03  0.73939705305E+03  0.26299856661E+03 0.  0.
         25    1    4    4    0    0  0.42123745968E+02  0.16198297377E+02 -0.39540468794E+03  0.41716803588E+03  0.12509000000E+03 0.  0.
         25    1    3    3    0    0 -0.61612753199E+02 -0.90030602686E+02 -0.27908775147E+03  0.32471390777E+03  0.12509000000E+03 0.  0.
         25    1    4    4    0    0  0.19489007231E+02  0.73832305309E+02 -0.28697212530E+03  0.32222901718E+03  0.12509000000E+03 0.  0.
<mgrwt>
<rscale>  2 0.45598029E+03</rscale>
<asrwt>0</asrwt>
<pdfrwt beam="1">  1       21 0.75475301E-02 0.45598029E+03</pdfrwt>
<pdfrwt beam="2">  1       21 0.14893936E+00 0.45598029E+03</pdfrwt>
<totfact> 0.36483933E+04</totfact>
</mgrwt>
</event>
<event>
 7    0  0.4709932E-002  0.4455611E+03  0.7546771E-02  0.1029054E+00
         21   -1    0    0  502  501  0.00000000000E+00  0.00000000000E+00  0.24218313891E+04  0.24218313891E+04  0.00000000000E+00 0.  1.
         21   -1    0    0  501  502 -0.00000000000E+00 -0.00000000000E+00 -0.20493239161E+02  0.20493239161E+02  0.00000000000E+00 0.  1.
      99926    2    1    2    0    0  0.00000000000E+00  0.00000000000E+00  0.24013381500E+04  0.24423246283E+04  0.44556108387E+03 0.  0.
      99925    2    3    3    0    0 -0.33236752813E+02 -0.97922018598E+02  0.15872704101E+04  0.16122359604E+04  0.26302857939E+03 0.  0.
         25    1    4    4    0    0 -0.57442954526E+02 -0.53297860752E+02  0.81952447904E+03  0.83271137546E+03  0.12509000000E+03 0.  0.
         25    1    4    4    0    0  0.24206201713E+02 -0.44624157846E+02  0.76774593111E+03  0.77952458493E+03  0.12509000000E+03 0.  0.
         25    1    3    3    0    0  0.33236752813E+02  0.97922018598E+02  0.81406773981E+03  0.83008866789E+03  0.12509000000E+03 0.  0.
<mgrwt>
<rscale>  2 0.44556108E+03</rscale>
<asrwt>0</asrwt>
<pdfrwt beam="1">  1       21 0.35615148E+00 0.44556108E+03</pdfrwt>
<pdfrwt beam="2">  1       21 0.30137133E-02 0.44556108E+03</pdfrwt>
<totfact> 0.83351065E+03</totfact>
</mgrwt>
</event>
<event>
 7    0  0.4709932E-002  0.4527371E+03  0.7546771E-02  0.1026909E+00
         21   -1    0    0  502  501  0.00000000000E+00  0.00000000000E+00  0.14461400163E+04  0.14461400163E+04  0.00000000000E+00 0. -1.
         21   -1    0    0  501  502 -0.00000000000E+00 -0.00000000000E+00 -0.35434135375E+02  0.35434135375E+02  0.00000000000E+00 0. -1.
      99926    2    1    2    0    0  0.35527136788E-14  0.14210854715E-13  0.14107058809E+04  0.14815741516E+04  0.45273710299E+03 0.  0.
      99925    2    3    3    0    0 -0.11481254939E+02 -0.87366538326E+02  0.11109942627E+04  0.11450636861E+04  0.26286472234E+03 0.  0.
         25    1    3    3    0    0  0.11481254939E+02  0.87366538326E+02  0.29971161816E+03  0.33651046550E+03  0.12509000000E+03 0.  0.
         25    1    4    4    0    0 -0.34828799726E+02 -0.68771233333E+02  0.65524435831E+03  0.67151709213E+03  0.12509000000E+03 0.  0.
         25    1    4    4    0    0  0.23347544788E+02 -0.18595304993E+02  0.45574990442E+03  0.47354659401E+03  0.12509000000E+03 0.  0.
<mgrwt>
<rscale>  2 0.45273710E+03</rscale>
<asrwt>0</asrwt>
<pdfrwt beam="1">  1       21 0.21266761E+00 0.45273710E+03</pdfrwt>
<pdfrwt beam="2">  1       21 0.52109032E-02 0.45273710E+03</pdfrwt>
<totfact> 0.24665069E+04</totfact>
</mgrwt>
</event>
<event>
 7    0  0.4709932E-002  0.4565690E+03  0.7546771E-02  0.1025781E+00
         21   -1    0    0  502  501  0.00000000000E+00  0.00000000000E+00  0.14554344066E+03  0.14554344066E+03  0.00000000000E+00 0.  1.
         21   -1    0    0  501  502 -0.00000000000E+00 -0.00000000000E+00 -0.35806356811E+03  0.35806356811E+03  0.00000000000E+00 0.  1.
      99926    2    1    2    0    0  0.71054273576E-14  0.00000000000E+00 -0.21252012745E+03  0.50360700877E+03  0.45656895942E+03 0.  0.
      99925    2    3    3    0    0  0.42443505500E+02  0.48529702963E+02 -0.28688778868E+02  0.27209446904E+03  0.26278464723E+03 0.  0.
         25    1    4    4    0    0  0.52049877832E+02  0.41806169191E+02  0.54689120863E+01  0.14189560481E+03  0.12509000000E+03 0.  0.
         25    1    4    4    0    0 -0.96063723319E+01  0.67235337721E+01 -0.34157690955E+02  0.13019886423E+03  0.12509000000E+03 0.  0.
         25    1    3    3    0    0 -0.42443505500E+02 -0.48529702963E+02 -0.18383134858E+03  0.23151253973E+03  0.12509000000E+03 0.  0.
<mgrwt>
<rscale>  2 0.45656896E+03</rscale>
<asrwt>0</asrwt>
<pdfrwt beam="1">  1       21 0.21403447E-01 0.45656896E+03</pdfrwt>
<pdfrwt beam="2">  1       21 0.52656406E-01 0.45656896E+03</pdfrwt>
<totfact> 0.64214541E+04</totfact>
</mgrwt>
</event>
<event>
 7    0  0.4709932E-002  0.4537909E+03  0.7546771E-02  0.1026598E+00
         21   -1    0    0  502  501  0.00000000000E+00  0.00000000000E+00  0.13111480580E+03  0.13111480580E+03  0.00000000000E+00 0. -1.
         21   -1    0    0  501  502 -0.00000000000E+00 -0.00000000000E+00 -0.39264471726E+03  0.39264471726E+03  0.00000000000E+00 0. -1.
      99926    2    1    2    0    0  0.00000000000E+00  0.71054273576E-14 -0.26152991146E+03  0.52375952306E+03  0.45379085867E+03 0.  0.
      99925    2    3    3    0    0  0.34499753861E+02 -0.56638445524E+02 -0.60430777283E+02  0.27781945639E+03  0.26293273851E+03 0.  0.
         25    1    4    4    0    0  0.57014131901E+02 -0.36152557760E+02 -0.25377951253E+02  0.14439240693E+03  0.12509000000E+03 0.  0.
         25    1    3    3    0    0 -0.34499753861E+02  0.56638445524E+02 -0.20109913417E+03  0.24594006667E+03  0.12509000000E+03 0.  0.
         25    1    4    4    0    0 -0.22514378040E+02 -0.20485887764E+02 -0.35052826030E+02  0.13342704946E+03  0.12509000000E+03 0.  0.
<mgrwt>
<rscale>  2 0.45379086E+03</rscale>
<asrwt>0</asrwt>
<pdfrwt beam="1">  1       21 0.19281589E-01 0.45379086E+03</pdfrwt>
<pdfrwt beam="2">  1       21 0.57741869E-01 0.45379086E+03</pdfrwt>
<totfact> 0.64244527E+04</totfact>
</mgrwt>
</event>
<event>
 7    0  0.4709932E-002  0.4538076E+03  0.7546771E-02  0.1026593E+00
         21   -1    0    0  502  501  0.00000000000E+00  0.00000000000E+00  0.14307863399E+03  0.14307863399E+03  0.00000000000E+00 0.  1.
         21   -1    0    0  501  502 -0.00000000000E+00 -0.00000000000E+00 -0.35983945647E+03  0.35983945647E+03  0.00000000000E+00 0.  1.
      99926    2    1    2    0    0 -0.35527136788E-14  0.00000000000E+00 -0.21676082248E+03  0.50291809046E+03  0.45380761513E+03 0.  0.
      99925    2    3    3    0    0 -0.19161666462E+02  0.80527498587E+02 -0.22032737760E+03  0.35287784284E+03  0.26291970477E+03 0.  0.
         25    1    3    3    0    0  0.19161666462E+02 -0.80527498587E+02  0.35665551281E+01  0.15004024762E+03  0.12509000000E+03 0.  0.
         25    1    4    4    0    0 -0.33079038748E+02  0.26148948694E+02 -0.14634380264E+03  0.19708375629E+03  0.12509000000E+03 0.  0.
         25    1    4    4    0    0  0.13917372286E+02  0.54378549893E+02 -0.73983574964E+02  0.15579408655E+03  0.12509000000E+03 0.  0.
<mgrwt>
<rscale>  2 0.45380762E+03</rscale>
<asrwt>0</asrwt>
<pdfrwt beam="1">  1       21 0.21040976E-01 0.45380762E+03</pdfrwt>
<pdfrwt beam="2">  1       21 0.52917566E-01 0.45380762E+03</pdfrwt>
<totfact> 0.65685630E+04</totfact>
</mgrwt>
</event>
<event>
 7    0  0.4709932E-002  0.4555126E+03  0.7546771E-02  0.1026091E+00
         21   -1    0    0  502  501  0.00000000000E+00  0.00000000000E+00  0.40815512809E+03  0.40815512809E+03  0.00000000000E+00 0. -1.
         21   -1    0    0  501  502 -0.00000000000E+00 -0.00000000000E+00 -0.12709121170E+03  0.12709121170E+03  0.00000000000E+00 0. -1.
      99926    2    1    2    0    0  0.00000000000E+00  0.00000000000E+00  0.28106391639E+03  0.53524633979E+03  0.45551258946E+03 0.  0.
      99925    2    3    3    0    0  0.10612282495E+03  0.25478569405E+02  0.13792715448E+03  0.31605041787E+03  0.26258856643E+03 0.  0.
         25    1    4    4    0    0  0.13830288752E+02  0.20328290167E+02  0.77467985816E+02  0.14917544434E+03  0.12509000000E+03 0.  0.
         25    1    3    3    0    0 -0.10612282495E+03 -0.25478569405E+02  0.14313676191E+03  0.21919592192E+03  0.12509000000E+03 0.  0.
         25    1    4    4    0    0  0.92292536199E+02  0.51502792384E+01  0.60459168661E+02  0.16687497353E+03  0.12509000000E+03 0.  0.
<mgrwt>
<rscale>  2 0.45551259E+03</rscale>
<asrwt>0</asrwt>
<pdfrwt beam="1">  1       21 0.60022813E-01 0.45551259E+03</pdfrwt>
<pdfrwt beam="2">  1       21 0.18689884E-01 0.45551259E+03</pdfrwt>
<totfact> 0.62597747E+04</totfact>
</mgrwt>
</event>
<event>
 7    0  0.4709932E-002  0.4489325E+03  0.7546771E-02  0.1028041E+00
         21   -1    0    0  502  501  0.00000000000E+00  0.00000000000E+00  0.76057018523E+02  0.76057018523E+02  0.00000000000E+00 0.  1.
         21   -1    0    0  501  502 -0.00000000000E+00 -0.00000000000E+00 -0.66246472477E+03  0.66246472477E+03  0.00000000000E+00 0.  1.
      99926    2    1    2    0    0 -0.53290705182E-14  0.00000000000E+00 -0.58640770625E+03  0.73852174329E+03  0.44893247529E+03 0.  0.
      99925    2    3    3    0    0 -0.93924598186E+01 -0.10001821532E+03 -0.43401152562E+03  0.51724371531E+03  0.26283682193E+03 0.  0.
         25    1    4    4    0    0 -0.34327935068E+02 -0.61030739258E+02 -0.17778567044E+03  0.22838215993E+03  0.12509000000E+03 0.  0.
         25    1    4    4    0    0  0.24935475249E+02 -0.38987476060E+02 -0.25622585518E+03  0.28886155538E+03  0.12509000000E+03 0.  0.
         25    1    3    3    0    0  0.93924598186E+01  0.10001821532E+03 -0.15239618063E+03  0.22127802798E+03  0.12509000000E+03 0.  0.
<mgrwt>
<rscale>  2 0.44893248E+03</rscale>
<asrwt>0</asrwt>
<pdfrwt beam="1">  1       21 0.11184856E-01 0.44893248E+03</pdfrwt>
<pdfrwt beam="2">  1       21 0.97421276E-01 0.44893248E+03</pdfrwt>
<totfact> 0.53361085E+04</totfact>
</mgrwt>
</event>
<event>
 7    0  0.4709932E-002  0.4544656E+03  0.7546771E-02  0.1026399E+00
         21   -1    0    0  502  501  0.00000000000E+00  0.00000000000E+00  0.58319685156E+03  0.58319685156E+03  0.00000000000E+00 0.  1.
         21   -1    0    0  501  502 -0.00000000000E+00 -0.00000000000E+00 -0.88537425969E+02  0.88537425969E+02  0.00000000000E+00 0.  1.
      99926    2    1    2    0    0  0.35527136788E-14  0.00000000000E+00  0.49465942559E+03  0.67173427753E+03  0.45446561177E+03 0.  0.
      99925    2    3    3    0    0  0.28870925265E+02  0.98376818400E+02  0.38059467373E+03  0.47382064879E+03  0.26294899281E+03 0.  0.
         25    1    3    3    0    0 -0.28870925265E+02 -0.98376818400E+02  0.11406475186E+03  0.19791362874E+03  0.12509000000E+03 0.  0.
         25    1    4    4    0    0 -0.22793265992E+02  0.52677238931E+02  0.21316564922E+03  0.25373515047E+03  0.12509000000E+03 0.  0.
         25    1    4    4    0    0  0.51664191257E+02  0.45699579468E+02  0.16742902451E+03  0.22008549832E+03  0.12509000000E+03 0.  0.
<mgrwt>
<rscale>  2 0.45446561E+03</rscale>
<asrwt>0</asrwt>
<pdfrwt beam="1">  1       21 0.85764241E-01 0.45446561E+03</pdfrwt>
<pdfrwt beam="2">  1       21 0.13020210E-01 0.45446561E+03</pdfrwt>
<totfact> 0.54694845E+04</totfact>
</mgrwt>
</event>
<event>
 7    0  0.4709932E-002  0.4571109E+03  0.7546771E-02  0.1025622E+00
         21   -1    0    0  502  501  0.00000000000E+00  0.00000000000E+00  0.23325136805E+02  0.23325136805E+02  0.00000000000E+00 0. -1.
         21   -1    0    0  501  502 -0.00000000000E+00 -0.00000000000E+00 -0.22395408856E+04  0.22395408856E+04  0.00000000000E+00 0. -1.
      99926    2    1    2    0    0  0.00000000000E+00  0.00000000000E+00 -0.22162157488E+04  0.22628660224E+04  0.45711091668E+03 0.  0.
      99925    2    3    3    0    0  0.62390112259E+02  0.88939315479E+02 -0.15808753187E+04  0.16062781013E+04  0.26298258013E+03 0.  0.
         25    1    4    4    0    0  0.10418216451E+02  0.14515823680E+02 -0.84025205599E+03  0.84970010831E+03  0.12509000000E+03 0.  0.
         25    1    3    3    0    0 -0.62390112259E+02 -0.88939315479E+02 -0.63534043010E+03  0.65658792112E+03  0.12509000000E+03 0.  0.
         25    1    4    4    0    0  0.51971895808E+02  0.74423491800E+02 -0.74062326274E+03  0.75657799301E+03  0.12509000000E+03 0.  0.
<mgrwt>
<rscale>  2 0.45711092E+03</rscale>
<asrwt>0</asrwt>
<pdfrwt beam="1">  1       21 0.34301672E-02 0.45711092E+03</pdfrwt>
<pdfrwt beam="2">  1       21 0.32934425E+00 0.45711092E+03</pdfrwt>
<totfact> 0.97128566E+03</totfact>
</mgrwt>
</event>
<event>
 7    0  0.4709932E-002  0.4534258E+03  0.7546771E-02  0.1026705E+00
         21   -1    0    0  502  501  0.00000000000E+00  0.00000000000E+00  0.60308855204E+02  0.60308855204E+02  0.00000000000E+00 0.  1.
         21   -1    0    0  501  502 -0.00000000000E+00 -0.00000000000E+00 -0.85225847653E+03  0.85225847653E+03  0.00000000000E+00 0.  1.
      99926    2    1    2    0    0 -0.71054273576E-14  0.71054273576E-14 -0.79194962133E+03  0.91256733173E+03  0.45342577367E+03 0.  0.
      99925    2    3    3    0    0 -0.63948569597E+02  0.28689472998E+02 -0.67390748446E+03  0.72684183647E+03  0.26312592465E+03 0.  0.
         25    1    3    3    0    0  0.63948569597E+02 -0.28689472998E+02 -0.11804213687E+03  0.18572549526E+03  0.12509000000E+03 0.  0.
         25    1    4    4    0    0 -0.24947391051E+02 -0.82663106816E+01 -0.41618179992E+03  0.43536823827E+03  0.12509000000E+03 0.  0.
         25    1    4    4    0    0 -0.39001178545E+02  0.36955783680E+02 -0.25772568454E+03  0.29147359820E+03  0.12509000000E+03 0.  0.
<mgrwt>
<rscale>  2 0.45342577E+03</rscale>
<asrwt>0</asrwt>
<pdfrwt beam="1">  1       21 0.88689498E-02 0.45342577E+03</pdfrwt>
<pdfrwt beam="2">  1       21 0.12533212E+00 0.45342577E+03</pdfrwt>
<totfact> 0.43224901E+04</totfact>
</mgrwt>
</event>
<event>
 7    0  0.4709932E-002  0.4471226E+03  0.7546771E-02  0.1028584E+00
         21   -1    0    0  502  501  0.00000000000E+00  0.00000000000E+00  0.93797895023E+02  0.93797895023E+02  0.00000000000E+00 0.  1.
         21   -1    0    0  501  502 -0.00000000000E+00 -0.00000000000E+00 -0.53284413195E+03  0.53284413195E+03  0.00000000000E+00 0.  1.
      99926    2    1    2    0    0  0.22204460493E-14  0.00000000000E+00 -0.43904623693E+03  0.62664202698E+03  0.44712261384E+03 0.  0.
      99925    2    3    3    0    0 -0.22524720935E+01 -0.75523063534E+02 -0.38174600411E+03  0.46967186568E+03  0.26296928148E+03 0.  0.
         25    1    4    4    0    0  0.37792940150E+02 -0.45272258448E+02 -0.17868604228E+03  0.22595152913E+03  0.12509000000E+03 0.  0.
         25    1    3    3    0    0  0.22524720935E+01  0.75523063534E+02 -0.57300232821E+02  0.15697016130E+03  0.12509000000E+03 0.  0.
         25    1    4    4    0    0 -0.40045412243E+02 -0.30250805087E+02 -0.20305996183E+03  0.24372033655E+03  0.12509000000E+03 0.  0.
<mgrwt>
<rscale>  2 0.44712261E+03</rscale>
<asrwt>0</asrwt>
<pdfrwt beam="1">  1       21 0.13793808E-01 0.44712261E+03</pdfrwt>
<pdfrwt beam="2">  1       21 0.78359431E-01 0.44712261E+03</pdfrwt>
<totfact> 0.60758842E+04</totfact>
</mgrwt>
</event>
<event>
 7    0  0.4709932E-002  0.4570317E+03  0.7546771E-02  0.1025646E+00
         21   -1    0    0  502  501  0.00000000000E+00  0.00000000000E+00  0.11883725509E+04  0.11883725509E+04  0.00000000000E+00 0.  1.
         21   -1    0    0  501  502 -0.00000000000E+00 -0.00000000000E+00 -0.43942032202E+02  0.43942032202E+02  0.00000000000E+00 0.  1.
      99926    2    1    2    0    0  0.00000000000E+00 -0.71054273576E-14  0.11444305187E+04  0.12323145831E+04  0.45703174900E+03 0.  0.
      99925    2    3    3    0    0  0.53992706528E+02  0.63108225954E+02  0.50413958060E+03  0.57465368716E+03  0.26300624117E+03 0.  0.
         25    1    3    3    0    0 -0.53992706528E+02 -0.63108225954E+02  0.64029093809E+03  0.65766089593E+03  0.12509000000E+03 0.  0.
         25    1    4    4    0    0  0.16040379286E+02  0.43787663382E+02  0.17597029358E+03  0.22087939142E+03  0.12509000000E+03 0.  0.
         25    1    4    4    0    0  0.37952327242E+02  0.19320562571E+02  0.32816928702E+03  0.35377429574E+03  0.12509000000E+03 0.  0.
<mgrwt>
<rscale>  2 0.45703175E+03</rscale>
<asrwt>0</asrwt>
<pdfrwt beam="1">  1       21 0.17476065E+00 0.45703175E+03</pdfrwt>
<pdfrwt beam="2">  1       21 0.64620643E-02 0.45703175E+03</pdfrwt>
<totfact> 0.30657678E+04</totfact>
</mgrwt>
</event>
<event>
 7    0  0.4709932E-002  0.4751858E+03  0.7546771E-02  0.1020467E+00
         21   -1    0    0  502  501  0.00000000000E+00  0.00000000000E+00  0.33580680904E+02  0.33580680904E+02  0.00000000000E+00 0. -1.
         21   -1    0    0  501  502 -0.00000000000E+00 -0.00000000000E+00 -0.16810378213E+04  0.16810378213E+04  0.00000000000E+00 0. -1.
      99926    2    1    2    0    0  0.00000000000E+00  0.14210854715E-13 -0.16474571404E+04  0.17146185022E+04  0.47518583592E+03 0.  0.
      99925    2    3    3    0    0  0.92507499296E+02 -0.80048873889E+02 -0.11904060188E+04  0.12252222461E+04  0.26294030331E+03 0.  0.
         25    1    4    4    0    0  0.17873747936E+02 -0.42634745378E+02 -0.43467340590E+03  0.45467094726E+03  0.12509000000E+03 0.  0.
         25    1    3    3    0    0 -0.92507499296E+02  0.80048873889E+02 -0.45705112160E+03  0.48939625611E+03  0.12509000000E+03 0.  0.
         25    1    4    4    0    0  0.74633751360E+02 -0.37414128511E+02 -0.75573261287E+03  0.77055129882E+03  0.12509000000E+03 0.  0.
<mgrwt>
<rscale>  2 0.47518584E+03</rscale>
<asrwt>0</asrwt>
<pdfrwt beam="1">  1       21 0.49383335E-02 0.47518584E+03</pdfrwt>
<pdfrwt beam="2">  1       21 0.24721154E+00 0.47518584E+03</pdfrwt>
<totfact> 0.16258184E+04</totfact>
</mgrwt>
</event>
<event>
 7    0  0.4709932E-002  0.4662863E+03  0.7546771E-02  0.1022974E+00
         21   -1    0    0  502  501  0.00000000000E+00  0.00000000000E+00  0.93425803465E+02  0.93425803465E+02  0.00000000000E+00 0.  1.
         21   -1    0    0  501  502 -0.00000000000E+00 -0.00000000000E+00 -0.58180630647E+03  0.58180630647E+03  0.00000000000E+00 0.  1.
      99926    2    1    2    0    0  0.00000000000E+00  0.00000000000E+00 -0.48838050300E+03  0.67523210993E+03  0.46628627105E+03 0.  0.
      99925    2    3    3    0    0 -0.84809090145E+02  0.56220801794E+02 -0.20371383109E+03  0.34806856899E+03  0.26324711473E+03 0.  0.
         25    1    4    4    0    0 -0.53491319285E+02 -0.22900015190E+01 -0.68749634108E+02  0.15244863278E+03  0.12509000000E+03 0.  0.
         25    1    4    4    0    0 -0.31317770860E+02  0.58510803313E+02 -0.13496419699E+03  0.19561993621E+03  0.12509000000E+03 0.  0.
         25    1    3    3    0    0  0.84809090145E+02 -0.56220801794E+02 -0.28466667191E+03  0.32716354094E+03  0.12509000000E+03 0.  0.
<mgrwt>
<rscale>  2 0.46628627E+03</rscale>
<asrwt>0</asrwt>
<pdfrwt beam="1">  1       21 0.13739088E-01 0.46628627E+03</pdfrwt>
<pdfrwt beam="2">  1       21 0.85559753E-01 0.46628627E+03</pdfrwt>
<totfact> 0.49697745E+04</totfact>
</mgrwt>
</event>
<event>
 7    0  0.4709932E-002  0.4543975E+03  0.7546771E-02  0.1026419E+00
         21   -1    0    0  502  501  0.00000000000E+00  0.00000000000E+00  0.70629800327E+03  0.70629800327E+03  0.00000000000E+00 0.  1.
         21   -1    0    0  501  502 -0.00000000000E+00 -0.00000000000E+00 -0.73084251920E+02  0.73084251920E+02  0.00000000000E+00 0.  1.
      99926    2    1    2    0    0  0.00000000000E+00  0.14210854715E-13  0.63321375135E+03  0.77938225519E+03  0.45439745246E+03 0.  0.
      99925    2    3    3    0    0  0.96400170616E+01  0.10993431920E+03  0.35983095507E+03  0.45912587997E+03  0.26294442942E+03 0.  0.
         25    1    4    4    0    0  0.14576088272E+02  0.87547216507E+02  0.23713197266E+03  0.28241115067E+03  0.12509000000E+03 0.  0.
         25    1    4    4    0    0 -0.49360712107E+01  0.22387102692E+02  0.12269898242E+03  0.17671472930E+03  0.12509000000E+03 0.  0.
         25    1    3    3    0    0 -0.96400170616E+01 -0.10993431920E+03  0.27338279627E+03  0.32025637521E+03  0.12509000000E+03 0.  0.
<mgrwt>
<rscale>  2 0.45439745E+03</rscale>
<asrwt>0</asrwt>
<pdfrwt beam="1">  1       21 0.10386735E+00 0.45439745E+03</pdfrwt>
<pdfrwt beam="2">  1       21 0.10747685E-01 0.45439745E+03</pdfrwt>
<totfact> 0.49009655E+04</totfact>
</mgrwt>
</event>
<event>
 7    0  0.4709932E-002  0.4483207E+03  0.7546771E-02  0.1028224E+00
         21   -1    0    0  502  501  0.00000000000E+00  0.00000000000E+00  0.26451498719E+03  0.26451498719E+03  0.00000000000E+00 0.  1.
         21   -1    0    0  501  502 -0.00000000000E+00 -0.00000000000E+00 -0.18996224500E+03  0.18996224500E+03  0.00000000000E+00 0.  1.
      99926    2    1    2    0    0  0.00000000000E+00  0.71054273576E-14  0.74552742193E+02  0.45447723218E+03  0.44832069237E+03 0.  0.
      99925    2    3    3    0    0 -0.84729323788E+02 -0.57305983536E+02  0.78286536366E+02  0.29284653158E+03  0.26299672094E+03 0.  0.
         25    1    4    4    0    0 -0.74776489139E+02 -0.81123338909E+01  0.25907793017E+02  0.14824322962E+03  0.12509000000E+03 0.  0.
         25    1    3    3    0    0  0.84729323788E+02  0.57305983536E+02 -0.37337941728E+01  0.16163070060E+03  0.12509000000E+03 0.  0.
         25    1    4    4    0    0 -0.99528346488E+01 -0.49193649645E+02  0.52378743349E+02  0.14460330196E+03  0.12509000000E+03 0.  0.
<mgrwt>
<rscale>  2 0.44832069E+03</rscale>
<asrwt>0</asrwt>
<pdfrwt beam="1">  1       21 0.38899263E-01 0.44832069E+03</pdfrwt>
<pdfrwt beam="2">  1       21 0.27935624E-01 0.44832069E+03</pdfrwt>
<totfact> 0.72363064E+04</totfact>
</mgrwt>
</event>
<event>
 7    0  0.4709932E-002  0.4525653E+03  0.7546771E-02  0.1026960E+00
         21   -1    0    0  502  501  0.00000000000E+00  0.00000000000E+00  0.73246266482E+03  0.73246266482E+03  0.00000000000E+00 0.  1.
         21   -1    0    0  501  502 -0.00000000000E+00 -0.00000000000E+00 -0.69906425044E+02  0.69906425044E+02  0.00000000000E+00 0.  1.
      99926    2    1    2    0    0  0.00000000000E+00 -0.19984014443E-14  0.66255623977E+03  0.80236908986E+03  0.45256533838E+03 0.  0.
      99925    2    3    3    0    0 -0.45177237291E+02  0.50420703656E+00  0.23644530834E+03  0.35598442281E+03  0.26225424392E+03 0.  0.
         25    1    3    3    0    0  0.45177237291E+02 -0.50420703656E+00  0.42611093143E+03  0.44638466705E+03  0.12509000000E+03 0.  0.
         25    1    4    4    0    0  0.55184708736E+01  0.25179864041E+02  0.13082537542E+03  0.18283125014E+03  0.12509000000E+03 0.  0.
         25    1    4    4    0    0 -0.50695708165E+02 -0.24675657005E+02  0.10561993292E+03  0.17315317267E+03  0.12509000000E+03 0.  0.
<mgrwt>
<rscale>  2 0.45256534E+03</rscale>
<asrwt>0</asrwt>
<pdfrwt beam="1">  1       21 0.10771509E+00 0.45256534E+03</pdfrwt>
<pdfrwt beam="2">  1       21 0.10280357E-01 0.45256534E+03</pdfrwt>
<totfact> 0.48571837E+04</totfact>
</mgrwt>
</event>
<event>
 7    0  0.4709932E-002  0.4543276E+03  0.7546771E-02  0.1026439E+00
         21   -1    0    0  502  501  0.00000000000E+00  0.00000000000E+00  0.62613505309E+02  0.62613505309E+02  0.00000000000E+00 0. -1.
         21   -1    0    0  501  502 -0.00000000000E+00 -0.00000000000E+00 -0.82415757654E+03  0.82415757654E+03  0.00000000000E+00 0. -1.
      99926    2    1    2    0    0  0.00000000000E+00 -0.71054273576E-14 -0.76154407123E+03  0.88677108184E+03  0.45432761216E+03 0.  0.
      99925    2    3    3    0    0  0.81760131985E+02 -0.60250465215E+02 -0.38445922426E+03  0.47670361465E+03  0.26291177866E+03 0.  0.
         25    1    4    4    0    0  0.68048617199E+02 -0.44307237567E+02 -0.15889040933E+03  0.21791607532E+03  0.12509000000E+03 0.  0.
         25    1    3    3    0    0 -0.81760131985E+02  0.60250465215E+02 -0.37708484697E+03  0.41006746720E+03  0.12509000000E+03 0.  0.
         25    1    4    4    0    0  0.13711514786E+02 -0.15943227648E+02 -0.22556881493E+03  0.25878753933E+03  0.12509000000E+03 0.  0.
<mgrwt>
<rscale>  2 0.45432761E+03</rscale>
<asrwt>0</asrwt>
<pdfrwt beam="1">  1       21 0.92078699E-02 0.45432761E+03</pdfrwt>
<pdfrwt beam="2">  1       21 0.12119962E+00 0.45432761E+03</pdfrwt>
<totfact> 0.44042065E+04</totfact>
</mgrwt>
</event>
<event>
 7    0  0.4709932E-002  0.4551879E+03  0.7546771E-02  0.1026186E+00
         21   -1    0    0  502  501  0.00000000000E+00  0.00000000000E+00  0.61822110963E+03  0.61822110963E+03  0.00000000000E+00 0.  1.
         21   -1    0    0  501  502 -0.00000000000E+00 -0.00000000000E+00 -0.83787175798E+02  0.83787175798E+02  0.00000000000E+00 0.  1.
      99926    2    1    2    0    0  0.00000000000E+00  0.00000000000E+00  0.53443393383E+03  0.70200828542E+03  0.45518787679E+03 0.  0.
      99925    2    3    3    0    0 -0.90384613416E+02  0.65185018306E+02  0.36593247575E+03  0.46439785967E+03  0.26332552155E+03 0.  0.
         25    1    4    4    0    0 -0.43590112743E+02  0.95984757439E+01  0.11959850210E+03  0.17872755375E+03  0.12509000000E+03 0.  0.
         25    1    4    4    0    0 -0.46794500673E+02  0.55586542562E+02  0.24633397365E+03  0.28567030591E+03  0.12509000000E+03 0.  0.
         25    1    3    3    0    0  0.90384613416E+02 -0.65185018306E+02  0.16850145808E+03  0.23761042576E+03  0.12509000000E+03 0.  0.
<mgrwt>
<rscale>  2 0.45518788E+03</rscale>
<asrwt>0</asrwt>
<pdfrwt beam="1">  1       21 0.90914867E-01 0.45518788E+03</pdfrwt>
<pdfrwt beam="2">  1       21 0.12321644E-01 0.45518788E+03</pdfrwt>
<totfact> 0.52716070E+04</totfact>
</mgrwt>
</event>
<event>
 7    0  0.4709932E-002  0.4513881E+03  0.7546771E-02  0.1027309E+00
         21   -1    0    0  502  501  0.00000000000E+00  0.00000000000E+00  0.11185192932E+03  0.11185192932E+03  0.00000000000E+00 0.  1.
         21   -1    0    0  501  502 -0.00000000000E+00 -0.00000000000E+00 -0.45540384254E+03  0.45540384254E+03  0.00000000000E+00 0.  1.
      99926    2    1    2    0    0  0.71054273576E-14  0.00000000000E+00 -0.34355191322E+03  0.56725577186E+03  0.45138807431E+03 0.  0.
      99925    2    3    3    0    0  0.50397357307E+02 -0.32123178656E+02 -0.99889421383E+02  0.28691542468E+03  0.26224182005E+03 0.  0.
         25    1    3    3    0    0 -0.50397357307E+02  0.32123178656E+02 -0.24366249184E+03  0.28034034718E+03  0.12509000000E+03 0.  0.
         25    1    4    4    0    0  0.62668843872E+02 -0.25279297536E+02 -0.41170342499E+02  0.14801666149E+03  0.12509000000E+03 0.  0.
         25    1    4    4    0    0 -0.12271486564E+02 -0.68438811200E+01 -0.58719078883E+02  0.13889876319E+03  0.12509000000E+03 0.  0.
<mgrwt>
<rscale>  2 0.45138807E+03</rscale>
<asrwt>0</asrwt>
<pdfrwt beam="1">  1       21 0.16448813E-01 0.45138807E+03</pdfrwt>
<pdfrwt beam="2">  1       21 0.66971154E-01 0.45138807E+03</pdfrwt>
<totfact> 0.62506853E+04</totfact>
</mgrwt>
</event>
<event>
 7    0  0.4709932E-002  0.4079374E+03  0.7546771E-02  0.1041065E+00
         21   -1    0    0  502  501  0.00000000000E+00  0.00000000000E+00  0.52242256537E+02  0.52242256537E+02  0.00000000000E+00 0. -1.
         21   -1    0    0  501  502 -0.00000000000E+00 -0.00000000000E+00 -0.79635219436E+03  0.79635219436E+03  0.00000000000E+00 0. -1.
      99926    2    1    2    0    0  0.00000000000E+00 -0.17763568394E-14 -0.74410993782E+03  0.84859445089E+03  0.40793742477E+03 0.  0.
      99925    2    3    3    0    0 -0.39115698476E+02 -0.13513099826E+02 -0.57980534977E+03  0.63798545895E+03  0.26294212381E+03 0.  0.
         25    1    4    4    0    0 -0.30039723438E+01 -0.25159215931E+02 -0.36343796170E+03  0.38519692379E+03  0.12509000000E+03 0.  0.
         25    1    3    3    0    0  0.39115698476E+02  0.13513099826E+02 -0.16430458805E+03  0.21060899194E+03  0.12509000000E+03 0.  0.
         25    1    4    4    0    0 -0.36111726132E+02  0.11646116105E+02 -0.21636738808E+03  0.25278853516E+03  0.12509000000E+03 0.  0.
<mgrwt>
<rscale>  2 0.40793742E+03</rscale>
<asrwt>0</asrwt>
<pdfrwt beam="1">  1       21 0.76826851E-02 0.40793742E+03</pdfrwt>
<pdfrwt beam="2">  1       21 0.11711061E+00 0.40793742E+03</pdfrwt>
<totfact> 0.67019554E+04</totfact>
</mgrwt>
</event>
<event>
 7    0  0.4709932E-002  0.4564864E+03  0.7546771E-02  0.1025805E+00
         21   -1    0    0  502  501  0.00000000000E+00  0.00000000000E+00  0.29292220953E+03  0.29292220953E+03  0.00000000000E+00 0.  1.
         21   -1    0    0  501  502 -0.00000000000E+00 -0.00000000000E+00 -0.17784571405E+03  0.17784571405E+03  0.00000000000E+00 0.  1.
      99926    2    1    2    0    0  0.00000000000E+00  0.00000000000E+00  0.11507649548E+03  0.47076792358E+03  0.45648640512E+03 0.  0.
      99925    2    3    3    0    0 -0.18202132908E+02 -0.10763454895E+03  0.36153458439E+02  0.28693955894E+03  0.26288918608E+03 0.  0.
         25    1    4    4    0    0 -0.39268877869E+02 -0.48761646018E+02  0.44644341251E+02  0.14683449253E+03  0.12509000000E+03 0.  0.
         25    1    3    3    0    0  0.18202132908E+02  0.10763454895E+03  0.78923037040E+02  0.18382836464E+03  0.12509000000E+03 0.  0.
         25    1    4    4    0    0  0.21066744961E+02 -0.58872902934E+02 -0.84908828120E+01  0.14010506641E+03  0.12509000000E+03 0.  0.
<mgrwt>
<rscale>  2 0.45648641E+03</rscale>
<asrwt>0</asrwt>
<pdfrwt beam="1">  1       21 0.43076795E-01 0.45648641E+03</pdfrwt>
<pdfrwt beam="2">  1       21 0.26153782E-01 0.45648641E+03</pdfrwt>
<totfact> 0.66589988E+04</totfact>
</mgrwt>
</event>
<event>
 7    0  0.4709932E-002  0.4551633E+03  0.7546771E-02  0.1026193E+00
         21   -1    0    0  502  501  0.00000000000E+00  0.00000000000E+00  0.14213572943E+03  0.14213572943E+03  0.00000000000E+00 0. -1.
         21   -1    0    0  501  502 -0.00000000000E+00 -0.00000000000E+00 -0.36439399251E+03  0.36439399251E+03  0.00000000000E+00 0. -1.
      99926    2    1    2    0    0 -0.14210854715E-13  0.00000000000E+00 -0.22225826308E+03  0.50652972194E+03  0.45516329344E+03 0.  0.
      99925    2    3    3    0    0  0.66277686772E+02  0.59421102269E+02 -0.61810157607E+02  0.28446058448E+03  0.26300899107E+03 0.  0.
         25    1    3    3    0    0 -0.66277686772E+02 -0.59421102269E+02 -0.16044810548E+03  0.22206913746E+03  0.12509000000E+03 0.  0.
         25    1    4    4    0    0  0.66617073129E+02  0.33236031167E+02 -0.79845506397E+01  0.14578658837E+03  0.12509000000E+03 0.  0.
         25    1    4    4    0    0 -0.33938635698E+00  0.26185071102E+02 -0.53825606968E+02  0.13867399611E+03  0.12509000000E+03 0.  0.
<mgrwt>
<rscale>  2 0.45516329E+03</rscale>
<asrwt>0</asrwt>
<pdfrwt beam="1">  1       21 0.20902313E-01 0.45516329E+03</pdfrwt>
<pdfrwt beam="2">  1       21 0.53587353E-01 0.45516329E+03</pdfrwt>
<totfact> 0.64730385E+04</totfact>
</mgrwt>
</event>
<event>
 7    0  0.4709932E-002  0.4746007E+03  0.7546771E-02  0.1020630E+00
         21   -1    0    0  502  501  0.00000000000E+00  0.00000000000E+00  0.29278494279E+03  0.29278494279E+03  0.00000000000E+00 0. -1.
         21   -1    0    0  501  502 -0.00000000000E+00 -0.00000000000E+00 -0.19233044535E+03  0.19233044535E+03  0.00000000000E+00 0. -1.
      99926    2    1    2    0    0  0.00000000000E+00  0.00000000000E+00  0.10045449744E+03  0.48511538813E+03  0.47460070980E+03 0.  0.
      99925    2    3    3    0    0 -0.12523613369E+03  0.20853468756E+02  0.93855343534E+02  0.30676176952E+03  0.26301140924E+03 0.  0.
         25    1    4    4    0    0 -0.42496768230E+02 -0.21269354924E+02  0.63227986591E+02  0.14799880796E+03  0.12509000000E+03 0.  0.
         25    1    4    4    0    0 -0.82739365455E+02  0.42122823680E+02  0.30627356943E+02  0.15876296156E+03  0.12509000000E+03 0.  0.
         25    1    3    3    0    0  0.12523613369E+03 -0.20853468756E+02  0.65991539083E+01  0.17835361861E+03  0.12509000000E+03 0.  0.
<mgrwt>
<rscale>  2 0.47460071E+03</rscale>
<asrwt>0</asrwt>
<pdfrwt beam="1">  1       21 0.43056609E-01 0.47460071E+03</pdfrwt>
<pdfrwt beam="2">  1       21 0.28283889E-01 0.47460071E+03</pdfrwt>
<totfact> 0.56940241E+04</totfact>
</mgrwt>
</event>
<event>
 7    0  0.4709932E-002  0.4529458E+03  0.7546771E-02  0.1026847E+00
         21   -1    0    0  502  501  0.00000000000E+00  0.00000000000E+00  0.34402613985E+03  0.34402613985E+03  0.00000000000E+00 0. -1.
         21   -1    0    0  501  502 -0.00000000000E+00 -0.00000000000E+00 -0.14908742837E+03  0.14908742837E+03  0.00000000000E+00 0. -1.
      99926    2    1    2    0    0  0.00000000000E+00  0.00000000000E+00  0.19493871148E+03  0.49311356821E+03  0.45294579137E+03 0.  0.
      99925    2    3    3    0    0 -0.10653708817E+03 -0.15573115621E+02  0.15410046626E+03  0.32309020671E+03  0.26276920459E+03 0.  0.
         25    1    4    4    0    0 -0.43683786989E+02  0.28638991547E+01  0.11775490907E+03  0.17728565050E+03  0.12509000000E+03 0.  0.
         25    1    3    3    0    0  0.10653708817E+03  0.15573115621E+02  0.40838245224E+02  0.17002336151E+03  0.12509000000E+03 0.  0.
         25    1    4    4    0    0 -0.62853301179E+02 -0.18437014775E+02  0.36345557192E+02  0.14580455621E+03  0.12509000000E+03 0.  0.
<mgrwt>
<rscale>  2 0.45294579E+03</rscale>
<asrwt>0</asrwt>
<pdfrwt beam="1">  1       21 0.50592079E-01 0.45294579E+03</pdfrwt>
<pdfrwt beam="2">  1       21 0.21924622E-01 0.45294579E+03</pdfrwt>
<totfact> 0.66840578E+04</totfact>
</mgrwt>
</event>
<event>
 7    0  0.4709932E-002  0.4679610E+03  0.7546771E-02  0.1022497E+00
         21   -1    0    0  502  501  0.00000000000E+00  0.00000000000E+00  0.12744331271E+04  0.12744331271E+04  0.00000000000E+00 0.  1.
         21   -1    0    0  501  502 -0.00000000000E+00 -0.00000000000E+00 -0.42957824315E+02  0.42957824315E+02  0.00000000000E+00 0.  1.
      99926    2    1    2    0    0  0.00000000000E+00  0.00000000000E+00  0.12314753028E+04  0.13173909514E+04  0.46796099998E+03 0.  0.
      99925    2    3    3    0    0  0.36013827895E+02  0.32900765319E+02  0.10900573346E+04  0.11223883720E+04  0.26296617411E+03 0.  0.
         25    1    4    4    0    0  0.57121153274E+02  0.54341518546E+01  0.56968926549E+03  0.58607655086E+03  0.12509000000E+03 0.  0.
         25    1    3    3    0    0 -0.36013827895E+02 -0.32900765319E+02  0.14141796824E+03  0.19500257947E+03  0.12509000000E+03 0.  0.
         25    1    4    4    0    0 -0.21107325379E+02  0.27466613465E+02  0.52036806906E+03  0.53631182109E+03  0.12509000000E+03 0.  0.
<mgrwt>
<rscale>  2 0.46796100E+03</rscale>
<asrwt>0</asrwt>
<pdfrwt beam="1">  1       21 0.18741661E+00 0.46796100E+03</pdfrwt>
<pdfrwt beam="2">  1       21 0.63173280E-02 0.46796100E+03</pdfrwt>
<totfact> 0.25902320E+04</totfact>
</mgrwt>
</event>
<event>
 7    0  0.4709932E-002  0.4565419E+03  0.7546771E-02  0.1025789E+00
         21   -1    0    0  502  501  0.00000000000E+00  0.00000000000E+00  0.11481739097E+04  0.11481739097E+04  0.00000000000E+00 0.  1.
         21   -1    0    0  501  502 -0.00000000000E+00 -0.00000000000E+00 -0.45383048404E+02  0.45383048404E+02  0.00000000000E+00 0.  1.
      99926    2    1    2    0    0  0.00000000000E+00  0.00000000000E+00  0.11027908613E+04  0.11935569581E+04  0.45654192412E+03 0.  0.
      99925    2    3    3    0    0  0.45917733822E+02  0.10483481196E+03  0.67945380004E+03  0.73753003827E+03  0.26304812275E+03 0.  0.
         25    1    3    3    0    0 -0.45917733822E+02 -0.10483481196E+03  0.42333706124E+03  0.45602691981E+03  0.12509000000E+03 0.  0.
         25    1    4    4    0    0 -0.15903473936E+02  0.44112140206E+02  0.28554127191E+03  0.31524613790E+03  0.12509000000E+03 0.  0.
         25    1    4    4    0    0  0.61821207758E+02  0.60722671758E+02  0.39391252813E+03  0.42228390037E+03  0.12509000000E+03 0.  0.
<mgrwt>
<rscale>  2 0.45654192E+03</rscale>
<asrwt>0</asrwt>
<pdfrwt beam="1">  1       21 0.16884908E+00 0.45654192E+03</pdfrwt>
<pdfrwt beam="2">  1       21 0.66739785E-02 0.45654192E+03</pdfrwt>
<totfact> 0.31975001E+04</totfact>
</mgrwt>
</event>
<event>
 7    0  0.4709932E-002  0.4565467E+03  0.7546771E-02  0.1025788E+00
         21   -1    0    0  502  501  0.00000000000E+00  0.00000000000E+00  0.15459486552E+03  0.15459486552E+03  0.00000000000E+00 0.  1.
         21   -1    0    0  501  502 -0.00000000000E+00 -0.00000000000E+00 -0.33706631016E+03  0.33706631016E+03  0.00000000000E+00 0.  1.
      99926    2    1    2    0    0  0.00000000000E+00  0.00000000000E+00 -0.18247144464E+03  0.49166117568E+03  0.45654669374E+03 0.  0.
      99925    2    3    3    0    0  0.10528927182E+03 -0.44943151668E+02 -0.12127923941E+03  0.31138995856E+03  0.26296261092E+03 0.  0.
         25    1    4    4    0    0  0.14773643717E+02 -0.31087949477E+02 -0.73787137794E+02  0.14925404837E+03  0.12509000000E+03 0.  0.
         25    1    3    3    0    0 -0.10528927182E+03  0.44943151668E+02 -0.61192205229E+02  0.18027121712E+03  0.12509000000E+03 0.  0.
         25    1    4    4    0    0  0.90515628099E+02 -0.13855202191E+02 -0.47492101613E+02  0.16213591019E+03  0.12509000000E+03 0.  0.
<mgrwt>
<rscale>  2 0.45654669E+03</rscale>
<asrwt>0</asrwt>
<pdfrwt beam="1">  1       21 0.22734539E-01 0.45654669E+03</pdfrwt>
<pdfrwt beam="2">  1       21 0.49568575E-01 0.45654669E+03</pdfrwt>
<totfact> 0.65058042E+04</totfact>
</mgrwt>
</event>
<event>
 7    0  0.4709932E-002  0.4645076E+03  0.7546771E-02  0.1023482E+00
         21   -1    0    0  502  501  0.00000000000E+00  0.00000000000E+00  0.35651077000E+03  0.35651077000E+03  0.00000000000E+00 0.  1.
         21   -1    0    0  501  502 -0.00000000000E+00 -0.00000000000E+00 -0.15130487897E+03  0.15130487897E+03  0.00000000000E+00 0.  1.
      99926    2    1    2    0    0  0.14210854715E-13  0.00000000000E+00  0.20520589103E+03  0.50781564897E+03  0.46450756251E+03 0.  0.
      99925    2    3    3    0    0  0.82475267834E+02  0.21315723483E+02  0.32228912560E+02  0.27797859136E+03  0.26263446951E+03 0.  0.
         25    1    4    4    0    0  0.58086555827E+02  0.44054661469E+02  0.33092856709E+02  0.14851769736E+03  0.12509000000E+03 0.  0.
         25    1    3    3    0    0 -0.82475267834E+02 -0.21315723483E+02  0.17297697847E+03  0.22983705762E+03  0.12509000000E+03 0.  0.
         25    1    4    4    0    0  0.24388712007E+02 -0.22738937986E+02 -0.86394414904E+00  0.12946089399E+03  0.12509000000E+03 0.  0.
<mgrwt>
<rscale>  2 0.46450756E+03</rscale>
<asrwt>0</asrwt>
<pdfrwt beam="1">  1       21 0.52428054E-01 0.46450756E+03</pdfrwt>
<pdfrwt beam="2">  1       21 0.22250718E-01 0.46450756E+03</pdfrwt>
<totfact> 0.60062593E+04</totfact>
</mgrwt>
</event>
<event>
 7    0  0.4709932E-002  0.4532235E+03  0.7546771E-02  0.1026765E+00
         21   -1    0    0  502  501  0.00000000000E+00  0.00000000000E+00  0.14309824013E+04  0.14309824013E+04  0.00000000000E+00 0.  1.
         21   -1    0    0  501  502 -0.00000000000E+00 -0.00000000000E+00 -0.35886449204E+02  0.35886449204E+02  0.00000000000E+00 0.  1.
      99926    2    1    2    0    0 -0.71054273576E-14  0.00000000000E+00  0.13950959521E+04  0.14668688505E+04  0.45322346478E+03 0.  0.
      99925    2    3    3    0    0  0.51056612817E+02 -0.97800515985E+02  0.82780009371E+03  0.87556197782E+03  0.26302863574E+03 0.  0.
         25    1    4    4    0    0 -0.11746928397E+02 -0.48785592796E+02  0.44795155329E+03  0.46778854901E+03  0.12509000000E+03 0.  0.
         25    1    3    3    0    0 -0.51056612817E+02  0.97800515985E+02  0.56729585837E+03  0.59130687267E+03  0.12509000000E+03 0.  0.
         25    1    4    4    0    0  0.62803541214E+02 -0.49014923189E+02  0.37984854042E+03  0.40777342881E+03  0.12509000000E+03 0.  0.
<mgrwt>
<rscale>  2 0.45322346E+03</rscale>
<asrwt>0</asrwt>
<pdfrwt beam="1">  1       21 0.21043855E+00 0.45322346E+03</pdfrwt>
<pdfrwt beam="2">  1       21 0.52774199E-02 0.45322346E+03</pdfrwt>
<totfact> 0.24945385E+04</totfact>
</mgrwt>
</event>
<event>
 7    0  0.4709932E-002  0.4560538E+03  0.7546771E-02  0.1025932E+00
         21   -1    0    0  502  501  0.00000000000E+00  0.00000000000E+00  0.24346679385E+03  0.24346679385E+03  0.00000000000E+00 0. -1.
         21   -1    0    0  501  502 -0.00000000000E+00 -0.00000000000E+00 -0.21356616753E+03  0.21356616753E+03  0.00000000000E+00 0. -1.
      99926    2    1    2    0    0  0.00000000000E+00  0.35527136788E-14  0.29900626317E+02  0.45703296137E+03  0.45605381297E+03 0.  0.
      99925    2    3    3    0    0 -0.10468155944E+03  0.27110270192E+02  0.55521355098E+02  0.28970954556E+03  0.26297491188E+03 0.  0.
         25    1    4    4    0    0 -0.10915255391E+02  0.43798878420E+01  0.14360618700E+02  0.12645972358E+03  0.12509000000E+03 0.  0.
         25    1    4    4    0    0 -0.93766304049E+02  0.22730382350E+02  0.41160736398E+02  0.16324982198E+03  0.12509000000E+03 0.  0.
         25    1    3    3    0    0  0.10468155944E+03 -0.27110270192E+02 -0.25620728781E+02  0.16732341581E+03  0.12509000000E+03 0.  0.
<mgrwt>
<rscale>  2 0.45605381E+03</rscale>
<asrwt>0</asrwt>
<pdfrwt beam="1">  1       21 0.35803940E-01 0.45605381E+03</pdfrwt>
<pdfrwt beam="2">  1       21 0.31406789E-01 0.45605381E+03</pdfrwt>
<totfact> 0.67825072E+04</totfact>
</mgrwt>
</event>
<event>
 7    0  0.4709932E-002  0.4562291E+03  0.7546771E-02  0.1025881E+00
         21   -1    0    0  502  501  0.00000000000E+00  0.00000000000E+00  0.83660084823E+03  0.83660084823E+03  0.00000000000E+00 0.  1.
         21   -1    0    0  501  502 -0.00000000000E+00 -0.00000000000E+00 -0.62199625058E+02  0.62199625058E+02  0.00000000000E+00 0.  1.
      99926    2    1    2    0    0  0.00000000000E+00  0.17763568394E-14  0.77440122317E+03  0.89880047329E+03  0.45622914893E+03 0.  0.
      99925    2    3    3    0    0 -0.11076540650E+03 -0.43044575712E+01  0.43202060237E+03  0.51780244018E+03  0.26304003982E+03 0.  0.
         25    1    4    4    0    0 -0.61164901289E+02 -0.24706929335E+02  0.15936018500E+03  0.21306044722E+03  0.12509000000E+03 0.  0.
         25    1    3    3    0    0  0.11076540650E+03  0.43044575712E+01  0.34238062080E+03  0.38099803311E+03  0.12509000000E+03 0.  0.
         25    1    4    4    0    0 -0.49600505215E+02  0.20402471764E+02  0.27266041737E+03  0.30474199296E+03  0.12509000000E+03 0.  0.
<mgrwt>
<rscale>  2 0.45622915E+03</rscale>
<asrwt>0</asrwt>
<pdfrwt beam="1">  1       21 0.12302953E+00 0.45622915E+03</pdfrwt>
<pdfrwt beam="2">  1       21 0.91470042E-02 0.45622915E+03</pdfrwt>
<totfact> 0.42871513E+04</totfact>
</mgrwt>
</event>
<event>
 7    0  0.4709932E-002  0.4504339E+03  0.7546771E-02  0.1027593E+00
         21   -1    0    0  502  501  0.00000000000E+00  0.00000000000E+00  0.11020677197E+04  0.11020677197E+04  0.00000000000E+00 0. -1.
         21   -1    0    0  501  502 -0.00000000000E+00 -0.00000000000E+00 -0.46025000953E+02  0.46025000953E+02  0.00000000000E+00 0. -1.
      99926    2    1    2    0    0  0.00000000000E+00  0.00000000000E+00  0.10560427188E+04  0.11480927207E+04  0.45043387018E+03 0.  0.
      99925    2    3    3    0    0  0.66714019592E+02 -0.65188507457E+02  0.81104650664E+03  0.85762593433E+03  0.26272705492E+03 0.  0.
         25    1    4    4    0    0 -0.98026903289E+00 -0.44454969783E+02  0.44461089121E+03  0.46400814427E+03  0.12509000000E+03 0.  0.
         25    1    3    3    0    0 -0.66714019592E+02  0.65188507457E+02  0.24499621216E+03  0.29046678637E+03  0.12509000000E+03 0.  0.
         25    1    4    4    0    0  0.67694288625E+02 -0.20733537674E+02  0.36643561543E+03  0.39361779006E+03  0.12509000000E+03 0.  0.
<mgrwt>
<rscale>  2 0.45043387E+03</rscale>
<asrwt>0</asrwt>
<pdfrwt beam="1">  1       21 0.16206877E+00 0.45043387E+03</pdfrwt>
<pdfrwt beam="2">  1       21 0.67683832E-02 0.45043387E+03</pdfrwt>
<totfact> 0.35077922E+04</totfact>
</mgrwt>
</event>
<event>
 7    0  0.4709932E-002  0.4580332E+03  0.7546771E-02  0.1025353E+00
         21   -1    0    0  502  501  0.00000000000E+00  0.00000000000E+00  0.19830846746E+04  0.19830846746E+04  0.00000000000E+00 0.  1.
         21   -1    0    0  501  502 -0.00000000000E+00 -0.00000000000E+00 -0.26447986880E+02  0.26447986880E+02  0.00000000000E+00 0.  1.
      99926    2    1    2    0    0  0.00000000000E+00 -0.14210854715E-13  0.19566366877E+04  0.20095326615E+04  0.45803317546E+03 0.  0.
      99925    2    3    3    0    0  0.19790885211E+02  0.11399234615E+03  0.12576179721E+04  0.12900463121E+04  0.26311706403E+03 0.  0.
         25    1    3    3    0    0 -0.19790885211E+02 -0.11399234615E+03  0.69901871560E+03  0.71948634940E+03  0.12509000000E+03 0.  0.
         25    1    4    4    0    0  0.19157462982E+02  0.20541966230E+02  0.66210507401E+03  0.67440315680E+03  0.12509000000E+03 0.  0.
         25    1    4    4    0    0  0.63342222948E+00  0.93450379917E+02  0.59551289808E+03  0.61564315526E+03  0.12509000000E+03 0.  0.
<mgrwt>
<rscale>  2 0.45803318E+03</rscale>
<asrwt>0</asrwt>
<pdfrwt beam="1">  1       21 0.29163000E+00 0.45803318E+03</pdfrwt>
<pdfrwt beam="2">  1       21 0.38894112E-02 0.45803318E+03</pdfrwt>
<totfact> 0.13240160E+04</totfact>
</mgrwt>
</event>
<event>
 7    0  0.4709932E-002  0.4536264E+03  0.7546771E-02  0.1026646E+00
         21   -1    0    0  502  501  0.00000000000E+00  0.00000000000E+00  0.35322609627E+02  0.35322609627E+02  0.00000000000E+00 0.  1.
         21   -1    0    0  501  502 -0.00000000000E+00 -0.00000000000E+00 -0.14564110187E+04  0.14564110187E+04  0.00000000000E+00 0.  1.
      99926    2    1    2    0    0  0.00000000000E+00  0.17763568394E-14 -0.14210884091E+04  0.14917336284E+04  0.45362644487E+03 0.  0.
      99925    2    3    3    0    0  0.31092065678E+02 -0.11538646912E+02 -0.55140606766E+03  0.61247556610E+03  0.26453319395E+03 0.  0.
         25    1    4    4    0    0  0.11993311422E+02 -0.40206188689E+02 -0.21937699169E+03  0.25599638613E+03  0.12509000000E+03 0.  0.
         25    1    3    3    0    0 -0.31092065678E+02  0.11538646912E+02 -0.86968234144E+03  0.87925806225E+03  0.12509000000E+03 0.  0.
         25    1    4    4    0    0  0.19098754256E+02  0.28667541777E+02 -0.33202907597E+03  0.35647917997E+03  0.12509000000E+03 0.  0.
<mgrwt>
<rscale>  2 0.45362644E+03</rscale>
<asrwt>0</asrwt>
<pdfrwt beam="1">  1       21 0.51945027E-02 0.45362644E+03</pdfrwt>
<pdfrwt beam="2">  1       21 0.21417804E+00 0.45362644E+03</pdfrwt>
<totfact> 0.24240048E+04</totfact>
</mgrwt>
</event>
<event>
 7    0  0.4709932E-002  0.4579154E+03  0.7546771E-02  0.1025388E+00
         21   -1    0    0  502  501  0.00000000000E+00  0.00000000000E+00  0.32984589392E+02  0.32984589392E+02  0.00000000000E+00 0.  1.
         21   -1    0    0  501  502 -0.00000000000E+00 -0.00000000000E+00 -0.15892764471E+04  0.15892764471E+04  0.00000000000E+00 0.  1.
      99926    2    1    2    0    0  0.00000000000E+00  0.00000000000E+00 -0.15562918577E+04  0.16222610365E+04  0.45791541156E+03 0.  0.
      99925    2    3    3    0    0 -0.10977103068E+03 -0.19476571057E+02 -0.10890387301E+04  0.11258720667E+04  0.26297060457E+03 0.  0.
         25    1    3    3    0    0  0.10977103068E+03  0.19476571057E+02 -0.46725312762E+03  0.49638896983E+03  0.12509000000E+03 0.  0.
         25    1    4    4    0    0 -0.58658418350E+02 -0.15804937968E+02 -0.39428462471E+03  0.41808908081E+03  0.12509000000E+03 0.  0.
         25    1    4    4    0    0 -0.51112612326E+02 -0.36716330895E+01 -0.69475410537E+03  0.70778298585E+03  0.12509000000E+03 0.  0.
<mgrwt>
<rscale>  2 0.45791541E+03</rscale>
<asrwt>0</asrwt>
<pdfrwt beam="1">  1       21 0.48506735E-02 0.45791541E+03</pdfrwt>
<pdfrwt beam="2">  1       21 0.23371719E+00 0.45791541E+03</pdfrwt>
<totfact> 0.20464184E+04</totfact>
</mgrwt>
</event>
<event>
 7    0  0.4709932E-002  0.4547843E+03  0.7546771E-02  0.1026305E+00
         21   -1    0    0  502  501  0.00000000000E+00  0.00000000000E+00  0.23966349106E+03  0.23966349106E+03  0.00000000000E+00 0. -1.
         21   -1    0    0  501  502 -0.00000000000E+00 -0.00000000000E+00 -0.21574913069E+03  0.21574913069E+03  0.00000000000E+00 0. -1.
      99926    2    1    2    0    0  0.00000000000E+00  0.00000000000E+00  0.23914360379E+02  0.45541262175E+03  0.45478429988E+03 0.  0.
      99925    2    3    3    0    0 -0.45909988953E+02 -0.21390808368E+02  0.11608847485E+03  0.29198413816E+03  0.26308346428E+03 0.  0.
         25    1    4    4    0    0 -0.19016227898E+02 -0.24121250292E+02  0.16571945227E+02  0.12986758297E+03  0.12509000000E+03 0.  0.
         25    1    3    3    0    0  0.45909988953E+02  0.21390808368E+02 -0.92174114476E+02  0.16342848359E+03  0.12509000000E+03 0.  0.
         25    1    4    4    0    0 -0.26893761055E+02  0.27304419244E+01  0.99516529628E+02  0.16211655519E+03  0.12509000000E+03 0.  0.
<mgrwt>
<rscale>  2 0.45478430E+03</rscale>
<asrwt>0</asrwt>
<pdfrwt beam="1">  1       21 0.35244631E-01 0.45478430E+03</pdfrwt>
<pdfrwt beam="2">  1       21 0.31727813E-01 0.45478430E+03</pdfrwt>
<totfact> 0.68633649E+04</totfact>
</mgrwt>
</event>
<event>
 7    0  0.4709932E-002  0.4356993E+03  0.7546771E-02  0.1032075E+00
         21   -1    0    0  502  501  0.00000000000E+00  0.00000000000E+00  0.11160347055E+03  0.11160347055E+03  0.00000000000E+00 0. -1.
         21   -1    0    0  501  502 -0.00000000000E+00 -0.00000000000E+00 -0.42524197570E+03  0.42524197570E+03  0.00000000000E+00 0. -1.
      99926    2    1    2    0    0  0.00000000000E+00  0.00000000000E+00 -0.31363850515E+03  0.53684544625E+03  0.43569934731E+03 0.  0.
      99925    2    3    3    0    0  0.59400769075E+02 -0.72559373619E+02 -0.20640821738E+03  0.34726919040E+03  0.26305555370E+03 0.  0.
         25    1    4    4    0    0 -0.64959327011E+01 -0.44194493748E+02 -0.77102067328E+02  0.15358250976E+03  0.12509000000E+03 0.  0.
         25    1    3    3    0    0 -0.59400769075E+02  0.72559373619E+02 -0.10723028777E+03  0.18957625585E+03  0.12509000000E+03 0.  0.
         25    1    4    4    0    0  0.65896701776E+02 -0.28364879871E+02 -0.12930615006E+03  0.19368668064E+03  0.12509000000E+03 0.  0.
<mgrwt>
<rscale>  2 0.43569935E+03</rscale>
<asrwt>0</asrwt>
<pdfrwt beam="1">  1       21 0.16412275E-01 0.43569935E+03</pdfrwt>
<pdfrwt beam="2">  1       21 0.62535585E-01 0.43569935E+03</pdfrwt>
<totfact> 0.73318302E+04</totfact>
</mgrwt>
</event>
<event>
 7    0  0.4709932E-002  0.4402568E+03  0.7546771E-02  0.1030668E+00
         21   -1    0    0  502  501  0.00000000000E+00  0.00000000000E+00  0.73564080038E+03  0.73564080038E+03  0.00000000000E+00 0. -1.
         21   -1    0    0  501  502 -0.00000000000E+00 -0.00000000000E+00 -0.65869810942E+02  0.65869810942E+02  0.00000000000E+00 0. -1.
      99926    2    1    2    0    0  0.00000000000E+00  0.00000000000E+00  0.66977098944E+03  0.80151061132E+03  0.44025683614E+03 0.  0.
      99925    2    3    3    0    0 -0.30778053950E+02  0.87759601573E+02  0.36718375507E+03  0.46113496769E+03  0.26300667704E+03 0.  0.
         25    1    4    4    0    0 -0.41051799435E+01  0.53560983961E+02  0.24842364468E+03  0.28327980310E+03  0.12509000000E+03 0.  0.
         25    1    3    3    0    0  0.30778053950E+02 -0.87759601573E+02  0.30258723437E+03  0.34037564363E+03  0.12509000000E+03 0.  0.
         25    1    4    4    0    0 -0.26672874007E+02  0.34198617612E+02  0.11876011039E+03  0.17785516460E+03  0.12509000000E+03 0.  0.
<mgrwt>
<rscale>  2 0.44025684E+03</rscale>
<asrwt>0</asrwt>
<pdfrwt beam="1">  1       21 0.10818247E+00 0.44025684E+03</pdfrwt>
<pdfrwt beam="2">  1       21 0.96867373E-02 0.44025684E+03</pdfrwt>
<totfact> 0.53633228E+04</totfact>
</mgrwt>
</event>
<event>
 7    0  0.4709932E-002  0.4563410E+03  0.7546771E-02  0.1025848E+00
         21   -1    0    0  502  501  0.00000000000E+00  0.00000000000E+00  0.21875754189E+03  0.21875754189E+03  0.00000000000E+00 0.  1.
         21   -1    0    0  501  502 -0.00000000000E+00 -0.00000000000E+00 -0.23798847140E+03  0.23798847140E+03  0.00000000000E+00 0.  1.
      99926    2    1    2    0    0  0.14210854715E-13  0.71054273576E-14 -0.19230929509E+02  0.45674601329E+03  0.45634098217E+03 0.  0.
      99925    2    3    3    0    0 -0.81067481190E+02 -0.50144457719E+02 -0.75727080262E+02  0.28963609050E+03  0.26280804989E+03 0.  0.
         25    1    3    3    0    0  0.81067481190E+02  0.50144457719E+02  0.56496150753E+02  0.16710992279E+03  0.12509000000E+03 0.  0.
         25    1    4    4    0    0 -0.67603598509E+02 -0.48975532228E+02 -0.63436370920E+02  0.16321927136E+03  0.12509000000E+03 0.  0.
         25    1    4    4    0    0 -0.13463882682E+02 -0.11689254906E+01 -0.12290709342E+02  0.12641681913E+03  0.12509000000E+03 0.  0.
<mgrwt>
<rscale>  2 0.45634098E+03</rscale>
<asrwt>0</asrwt>
<pdfrwt beam="1">  1       21 0.32170227E-01 0.45634098E+03</pdfrwt>
<pdfrwt beam="2">  1       21 0.34998305E-01 0.45634098E+03</pdfrwt>
<totfact> 0.67690924E+04</totfact>
</mgrwt>
</event>
<event>
 7    0  0.4709932E-002  0.5032681E+03  0.7546771E-02  0.1012929E+00
         21   -1    0    0  502  501  0.00000000000E+00  0.00000000000E+00  0.18864332980E+04  0.18864332980E+04  0.00000000000E+00 0.  1.
         21   -1    0    0  501  502 -0.00000000000E+00 -0.00000000000E+00 -0.33565821374E+02  0.33565821374E+02  0.00000000000E+00 0.  1.
      99926    2    1    2    0    0  0.00000000000E+00  0.00000000000E+00  0.18528674767E+04  0.19199991194E+04  0.50326805230E+03 0.  0.
      99925    2    3    3    0    0  0.98089294640E+02  0.93796249982E+02  0.84395612191E+03  0.89434377960E+03  0.26300116761E+03 0.  0.
         25    1    3    3    0    0 -0.98089294640E+02 -0.93796249982E+02  0.10089113548E+04  0.10256553398E+04  0.12509000000E+03 0.  0.
         25    1    4    4    0    0  0.80634518424E+02  0.79288419929E+02  0.49704098360E+03  0.52486743714E+03  0.12509000000E+03 0.  0.
         25    1    4    4    0    0  0.17454776216E+02  0.14507830053E+02  0.34691513831E+03  0.36947634246E+03  0.12509000000E+03 0.  0.
<mgrwt>
<rscale>  2 0.50326805E+03</rscale>
<asrwt>0</asrwt>
<pdfrwt beam="1">  1       21 0.27741659E+00 0.50326805E+03</pdfrwt>
<pdfrwt beam="2">  1       21 0.49361515E-02 0.50326805E+03</pdfrwt>
<totfact> 0.10529649E+04</totfact>
</mgrwt>
</event>
<event>
 7    0  0.4709932E-002  0.4620576E+03  0.7546771E-02  0.1024186E+00
         21   -1    0    0  502  501  0.00000000000E+00  0.00000000000E+00  0.39820844938E+03  0.39820844938E+03  0.00000000000E+00 0.  1.
         21   -1    0    0  501  502 -0.00000000000E+00 -0.00000000000E+00 -0.13403608785E+03  0.13403608785E+03  0.00000000000E+00 0.  1.
      99926    2    1    2    0    0  0.35527136788E-14  0.00000000000E+00  0.26417236154E+03  0.53224453723E+03  0.46205758387E+03 0.  0.
      99925    2    3    3    0    0  0.20001032672E+02 -0.89146234462E+02  0.75781176943E+02  0.28834734791E+03  0.26278187502E+03 0.  0.
         25    1    4    4    0    0  0.43462694731E+02 -0.62864815613E+02  0.55864298680E+02  0.15687357598E+03  0.12509000000E+03 0.  0.
         25    1    3    3    0    0 -0.20001032672E+02  0.89146234462E+02  0.18839118459E+03  0.24389718932E+03  0.12509000000E+03 0.  0.
         25    1    4    4    0    0 -0.23461662059E+02 -0.26281418849E+02  0.19916878263E+02  0.13147377192E+03  0.12509000000E+03 0.  0.
<mgrwt>
<rscale>  2 0.46205758E+03</rscale>
<asrwt>0</asrwt>
<pdfrwt beam="1">  1       21 0.58560066E-01 0.46205758E+03</pdfrwt>
<pdfrwt beam="2">  1       21 0.19711189E-01 0.46205758E+03</pdfrwt>
<totfact> 0.59647558E+04</totfact>
</mgrwt>
</event>
<event>
 7    0  0.4709932E-002  0.4296153E+03  0.7546771E-02  0.1033982E+00
         21   -1    0    0  502  501  0.00000000000E+00  0.00000000000E+00  0.12593935269E+03  0.12593935269E+03  0.00000000000E+00 0. -1.
         21   -1    0    0  501  502 -0.00000000000E+00 -0.00000000000E+00 -0.36638526974E+03  0.36638526974E+03  0.00000000000E+00 0. -1.
      99926    2    1    2    0    0  0.00000000000E+00  0.00000000000E+00 -0.24044591705E+03  0.49232462244E+03  0.42961528701E+03 0.  0.
      99925    2    3    3    0    0  0.63525925453E+02 -0.35207102883E+02 -0.21068498131E+03  0.34464827127E+03  0.26290527998E+03 0.  0.
         25    1    4    4    0    0  0.27958105667E+02  0.22859832993E+02 -0.95285156825E+02  0.16134124348E+03  0.12509000000E+03 0.  0.
         25    1    4    4    0    0  0.35567819787E+02 -0.58066935876E+02 -0.11539982448E+03  0.18330702779E+03  0.12509000000E+03 0.  0.
         25    1    3    3    0    0 -0.63525925453E+02  0.35207102883E+02 -0.29760935744E+02  0.14767635117E+03  0.12509000000E+03 0.  0.
<mgrwt>
<rscale>  2 0.42961529E+03</rscale>
<asrwt>0</asrwt>
<pdfrwt beam="1">  1       21 0.18520493E-01 0.42961529E+03</pdfrwt>
<pdfrwt beam="2">  1       21 0.53880187E-01 0.42961529E+03</pdfrwt>
<totfact> 0.80928582E+04</totfact>
</mgrwt>
</event>
<event>
 7    0  0.4709932E-002  0.4032631E+03  0.7546771E-02  0.1042656E+00
         21   -1    0    0  502  501  0.00000000000E+00  0.00000000000E+00  0.40214553707E+03  0.40214553707E+03  0.00000000000E+00 0.  1.
         21   -1    0    0  501  502 -0.00000000000E+00 -0.00000000000E+00 -0.10109593555E+03  0.10109593555E+03  0.00000000000E+00 0.  1.
      99926    2    1    2    0    0  0.17763568394E-14  0.00000000000E+00  0.30104960152E+03  0.50324147262E+03  0.40326308681E+03 0.  0.
      99925    2    3    3    0    0  0.13978022609E+02  0.22099205390E+02  0.25555547666E+03  0.36759124780E+03  0.26292767792E+03 0.  0.
         25    1    3    3    0    0 -0.13978022609E+02 -0.22099205390E+02  0.45494124868E+02  0.13565022482E+03  0.12509000000E+03 0.  0.
         25    1    4    4    0    0  0.33283353703E+02 -0.19279882268E+02  0.11967542663E+03  0.17733925492E+03  0.12509000000E+03 0.  0.
         25    1    4    4    0    0 -0.19305331094E+02  0.41379087658E+02  0.13588005002E+03  0.19025199289E+03  0.12509000000E+03 0.  0.
<mgrwt>
<rscale>  2 0.40326309E+03</rscale>
<asrwt>0</asrwt>
<pdfrwt beam="1">  1       21 0.59139049E-01 0.40326309E+03</pdfrwt>
<pdfrwt beam="2">  1       21 0.14867049E-01 0.40326309E+03</pdfrwt>
<totfact> 0.10026450E+05</totfact>
</mgrwt>
</event>
<event>
 7    0  0.4709932E-002  0.4561957E+03  0.7546771E-02  0.1025890E+00
         21   -1    0    0  502  501  0.00000000000E+00  0.00000000000E+00  0.14024370072E+04  0.14024370072E+04  0.00000000000E+00 0.  1.
         21   -1    0    0  501  502 -0.00000000000E+00 -0.00000000000E+00 -0.37098729115E+02  0.37098729115E+02  0.00000000000E+00 0.  1.
      99926    2    1    2    0    0  0.00000000000E+00  0.00000000000E+00  0.13653382781E+04  0.14395357363E+04  0.45619570639E+03 0.  0.
      99925    2    3    3    0    0  0.33952415759E+02  0.91042692366E+02  0.67056307835E+03  0.72693372633E+03  0.26331779670E+03 0.  0.
         25    1    3    3    0    0 -0.33952415759E+02 -0.91042692366E+02  0.69477519976E+03  0.71260201001E+03  0.12509000000E+03 0.  0.
         25    1    4    4    0    0  0.56387478336E+02  0.60190718557E+02  0.35033070255E+03  0.38102700635E+03  0.12509000000E+03 0.  0.
         25    1    4    4    0    0 -0.22435062577E+02  0.30851973810E+02  0.32023237579E+03  0.34590671998E+03  0.12509000000E+03 0.  0.
<mgrwt>
<rscale>  2 0.45619571E+03</rscale>
<asrwt>0</asrwt>
<pdfrwt beam="1">  1       21 0.20624070E+00 0.45619571E+03</pdfrwt>
<pdfrwt beam="2">  1       21 0.54556964E-02 0.45619571E+03</pdfrwt>
<totfact> 0.25063587E+04</totfact>
</mgrwt>
</event>
<event>
 7    0  0.4709932E-002  0.4280406E+03  0.7546771E-02  0.1034481E+00
         21   -1    0    0  502  501  0.00000000000E+00  0.00000000000E+00  0.23759039212E+02  0.23759039212E+02  0.00000000000E+00 0.  1.
         21   -1    0    0  501  502 -0.00000000000E+00 -0.00000000000E+00 -0.19278850528E+04  0.19278850528E+04  0.00000000000E+00 0.  1.
      99926    2    1    2    0    0  0.00000000000E+00 -0.17763568394E-14 -0.19041260136E+04  0.19516440920E+04  0.42804063623E+03 0.  0.
      99925    2    3    3    0    0  0.43396448583E+02 -0.11240144439E+02 -0.89868515025E+03  0.93746046447E+03  0.26303522687E+03 0.  0.
         25    1    3    3    0    0 -0.43396448583E+02  0.11240144439E+02 -0.10054408634E+04  0.10141836276E+04  0.12509000000E+03 0.  0.
         25    1    4    4    0    0  0.34989419954E+02  0.23050263966E+02 -0.36286917602E+03  0.38610506496E+03  0.12509000000E+03 0.  0.
         25    1    4    4    0    0  0.84070286299E+01 -0.34290408405E+02 -0.53581597423E+03  0.55135539952E+03  0.12509000000E+03 0.  0.
<mgrwt>
<rscale>  2 0.42804064E+03</rscale>
<asrwt>0</asrwt>
<pdfrwt beam="1">  1       21 0.34939763E-02 0.42804064E+03</pdfrwt>
<pdfrwt beam="2">  1       21 0.28351251E+00 0.42804064E+03</pdfrwt>
<totfact> 0.17997553E+04</totfact>
</mgrwt>
</event>
<event>
 7    0  0.4709932E-002  0.4562821E+03  0.7546771E-02  0.1025865E+00
         21   -1    0    0  502  501  0.00000000000E+00  0.00000000000E+00  0.66176691637E+03  0.66176691637E+03  0.00000000000E+00 0. -1.
         21   -1    0    0  501  502 -0.00000000000E+00 -0.00000000000E+00 -0.78650554160E+02  0.78650554160E+02  0.00000000000E+00 0. -1.
      99926    2    1    2    0    0  0.00000000000E+00  0.00000000000E+00  0.58311636221E+03  0.74041747053E+03  0.45628208248E+03 0.  0.
      99925    2    3    3    0    0  0.22357047979E+02 -0.10162730473E+03  0.44360437062E+03  0.52608350085E+03  0.26296590192E+03 0.  0.
         25    1    4    4    0    0 -0.16205312879E+02 -0.58591366900E+02  0.27639261507E+03  0.30941225931E+03  0.12509000000E+03 0.  0.
         25    1    3    3    0    0 -0.22357047979E+02  0.10162730473E+03  0.13951199159E+03  0.21433396968E+03  0.12509000000E+03 0.  0.
         25    1    4    4    0    0  0.38562360858E+02 -0.43035937832E+02  0.16721175554E+03  0.21667124154E+03  0.12509000000E+03 0.  0.
<mgrwt>
<rscale>  2 0.45628208E+03</rscale>
<asrwt>0</asrwt>
<pdfrwt beam="1">  1       21 0.97318662E-01 0.45628208E+03</pdfrwt>
<pdfrwt beam="2">  1       21 0.11566258E-01 0.45628208E+03</pdfrwt>
<totfact> 0.50254448E+04</totfact>
</mgrwt>
</event>
<event>
 7    0  0.4709932E-002  0.4522399E+03  0.7546771E-02  0.1027056E+00
         21   -1    0    0  502  501  0.00000000000E+00  0.00000000000E+00  0.31047218267E+02  0.31047218267E+02  0.00000000000E+00 0.  1.
         21   -1    0    0  501  502 -0.00000000000E+00 -0.00000000000E+00 -0.16468535282E+04  0.16468535282E+04  0.00000000000E+00 0.  1.
      99926    2    1    2    0    0  0.00000000000E+00  0.00000000000E+00 -0.16158063099E+04  0.16779007464E+04  0.45223985204E+03 0.  0.
      99925    2    3    3    0    0  0.41010326369E+02 -0.91939100697E+02 -0.11894830703E+04  0.12223421247E+04  0.26289855496E+03 0.  0.
         25    1    3    3    0    0 -0.41010326369E+02  0.91939100697E+02 -0.42632323959E+03  0.45555862171E+03  0.12509000000E+03 0.  0.
         25    1    4    4    0    0  0.11301087559E+02 -0.64541527694E+02 -0.76661877242E+03  0.77951598682E+03  0.12509000000E+03 0.  0.
         25    1    4    4    0    0  0.29709238810E+02 -0.27397573004E+02 -0.42286429788E+03  0.44282613789E+03  0.12509000000E+03 0.  0.
<mgrwt>
<rscale>  2 0.45223985E+03</rscale>
<asrwt>0</asrwt>
<pdfrwt beam="1">  1       21 0.45657679E-02 0.45223985E+03</pdfrwt>
<pdfrwt beam="2">  1       21 0.24218432E+00 0.45223985E+03</pdfrwt>
<totfact> 0.20153838E+04</totfact>
</mgrwt>
</event>
<event>
 7    0  0.4709932E-002  0.4488525E+03  0.7546771E-02  0.1028065E+00
         21   -1    0    0  502  501  0.00000000000E+00  0.00000000000E+00  0.30609762659E+03  0.30609762659E+03  0.00000000000E+00 0. -1.
         21   -1    0    0  501  502 -0.00000000000E+00 -0.00000000000E+00 -0.16454597391E+03  0.16454597391E+03  0.00000000000E+00 0. -1.
      99926    2    1    2    0    0 -0.35527136788E-14  0.00000000000E+00  0.14155165268E+03  0.47064360050E+03  0.44885245718E+03 0.  0.
      99925    2    3    3    0    0 -0.19388848972E+02  0.70950069032E+02  0.83578606400E+01  0.27367168855E+03  0.26347011124E+03 0.  0.
         25    1    3    3    0    0  0.19388848972E+02 -0.70950069032E+02  0.13319379204E+03  0.19697191195E+03  0.12509000000E+03 0.  0.
         25    1    4    4    0    0 -0.40474510496E+02  0.75255157392E+01  0.59507967072E+01  0.13182465425E+03  0.12509000000E+03 0.  0.
         25    1    4    4    0    0  0.21085661523E+02  0.63424553293E+02  0.24070639328E+01  0.14184703430E+03  0.12509000000E+03 0.  0.
<mgrwt>
<rscale>  2 0.44885246E+03</rscale>
<asrwt>0</asrwt>
<pdfrwt beam="1">  1       21 0.45014357E-01 0.44885246E+03</pdfrwt>
<pdfrwt beam="2">  1       21 0.24197937E-01 0.44885246E+03</pdfrwt>
<totfact> 0.70778078E+04</totfact>
</mgrwt>
</event>
<event>
 7    0  0.4709932E-002  0.4549305E+03  0.7546771E-02  0.1026262E+00
         21   -1    0    0  502  501  0.00000000000E+00  0.00000000000E+00  0.87303248700E+02  0.87303248700E+02  0.00000000000E+00 0.  1.
         21   -1    0    0  501  502 -0.00000000000E+00 -0.00000000000E+00 -0.59265203316E+03  0.59265203316E+03  0.00000000000E+00 0.  1.
      99926    2    1    2    0    0  0.00000000000E+00 -0.14210854715E-13 -0.50534878446E+03  0.67995528186E+03  0.45493053467E+03 0.  0.
      99925    2    3    3    0    0 -0.25884259883E+02  0.95173291124E+02 -0.40144686080E+03  0.48976835252E+03  0.26265092200E+03 0.  0.
         25    1    4    4    0    0  0.62661656514E+01  0.14351026664E+02 -0.21206472916E+03  0.24670665628E+03  0.12509000000E+03 0.  0.
         25    1    4    4    0    0 -0.32150425535E+02  0.80822264461E+02 -0.18938213163E+03  0.24306169623E+03  0.12509000000E+03 0.  0.
         25    1    3    3    0    0  0.25884259883E+02 -0.95173291124E+02 -0.10390192367E+03  0.19018692935E+03  0.12509000000E+03 0.  0.
<mgrwt>
<rscale>  2 0.45493053E+03</rscale>
<asrwt>0</asrwt>
<pdfrwt beam="1">  1       21 0.12838713E-01 0.45493053E+03</pdfrwt>
<pdfrwt beam="2">  1       21 0.87154710E-01 0.45493053E+03</pdfrwt>
<totfact> 0.54034801E+04</totfact>
</mgrwt>
</event>
<event>
 7    0  0.4709932E-002  0.4565998E+03  0.7546771E-02  0.1025772E+00
         21   -1    0    0  502  501  0.00000000000E+00  0.00000000000E+00  0.70694077831E+02  0.70694077831E+02  0.00000000000E+00 0.  1.
         21   -1    0    0  501  502 -0.00000000000E+00 -0.00000000000E+00 -0.73727313170E+03  0.73727313170E+03  0.00000000000E+00 0.  1.
      99926    2    1    2    0    0  0.00000000000E+00 -0.35527136788E-14 -0.66657905387E+03  0.80796720953E+03  0.45659979919E+03 0.  0.
      99925    2    3    3    0    0  0.10398682732E+03  0.16958256485E+02 -0.33938282108E+03  0.44217256007E+03  0.26312550412E+03 0.  0.
         25    1    4    4    0    0  0.59430530420E+02  0.47042202021E+02 -0.19445393247E+03  0.24332035811E+03  0.12509000000E+03 0.  0.
         25    1    3    3    0    0 -0.10398682732E+03 -0.16958256485E+02 -0.32719623279E+03  0.36579464946E+03  0.12509000000E+03 0.  0.
         25    1    4    4    0    0  0.44556296904E+02 -0.30083945536E+02 -0.14492888861E+03  0.19885220196E+03  0.12509000000E+03 0.  0.
<mgrwt>
<rscale>  2 0.45659980E+03</rscale>
<asrwt>0</asrwt>
<pdfrwt beam="1">  1       21 0.10396187E-01 0.45659980E+03</pdfrwt>
<pdfrwt beam="2">  1       21 0.10842252E+00 0.45659980E+03</pdfrwt>
<totfact> 0.46791653E+04</totfact>
</mgrwt>
</event>
<event>
 7    0  0.4709932E-002  0.4555478E+03  0.7546771E-02  0.1026080E+00
         21   -1    0    0  502  501  0.00000000000E+00  0.00000000000E+00  0.93820137196E+02  0.93820137196E+02  0.00000000000E+00 0. -1.
         21   -1    0    0  501  502 -0.00000000000E+00 -0.00000000000E+00 -0.55298301305E+03  0.55298301305E+03  0.00000000000E+00 0. -1.
      99926    2    1    2    0    0  0.00000000000E+00  0.00000000000E+00 -0.45916287585E+03  0.64680315024E+03  0.45554776764E+03 0.  0.
      99925    2    3    3    0    0  0.98974334646E+02 -0.53007990866E+02 -0.31403229237E+03  0.42473072878E+03  0.26300978176E+03 0.  0.
         25    1    3    3    0    0 -0.98974334646E+02  0.53007990866E+02 -0.14513058348E+03  0.22207242147E+03  0.12509000000E+03 0.  0.
         25    1    4    4    0    0  0.66188551626E+02 -0.61007213145E+02 -0.19715661223E+03  0.25024196744E+03  0.12509000000E+03 0.  0.
         25    1    4    4    0    0  0.32785783019E+02  0.79992222794E+01 -0.11687568014E+03  0.17448876134E+03  0.12509000000E+03 0.  0.
<mgrwt>
<rscale>  2 0.45554777E+03</rscale>
<asrwt>0</asrwt>
<pdfrwt beam="1">  1       21 0.13797079E-01 0.45554777E+03</pdfrwt>
<pdfrwt beam="2">  1       21 0.81321029E-01 0.45554777E+03</pdfrwt>
<totfact> 0.55645159E+04</totfact>
</mgrwt>
</event>
<event>
 7    0  0.4709932E-002  0.4494669E+03  0.7546771E-02  0.1027881E+00
         21   -1    0    0  502  501  0.00000000000E+00  0.00000000000E+00  0.12507078351E+03  0.12507078351E+03  0.00000000000E+00 0.  1.
         21   -1    0    0  501  502 -0.00000000000E+00 -0.00000000000E+00 -0.40381229044E+03  0.40381229044E+03  0.00000000000E+00 0.  1.
      99926    2    1    2    0    0  0.71054273576E-14  0.00000000000E+00 -0.27874150693E+03  0.52888307395E+03  0.44946688223E+03 0.  0.
      99925    2    3    3    0    0  0.38255079571E+02 -0.43404472000E+02 -0.28350839955E+03  0.39097864810E+03  0.26294465455E+03 0.  0.
         25    1    4    4    0    0 -0.48888667947E+01 -0.25451641130E+02 -0.18595433941E+03  0.22560631973E+03  0.12509000000E+03 0.  0.
         25    1    4    4    0    0  0.43143946366E+02 -0.17952830870E+02 -0.97554060138E+02  0.16537232838E+03  0.12509000000E+03 0.  0.
         25    1    3    3    0    0 -0.38255079571E+02  0.43404472000E+02  0.47668926155E+01  0.13790442585E+03  0.12509000000E+03 0.  0.
<mgrwt>
<rscale>  2 0.44946688E+03</rscale>
<asrwt>0</asrwt>
<pdfrwt beam="1">  1       21 0.18392762E-01 0.44946688E+03</pdfrwt>
<pdfrwt beam="2">  1       21 0.59384160E-01 0.44946688E+03</pdfrwt>
<totfact> 0.66133301E+04</totfact>
</mgrwt>
</event>
<event>
 7    0  0.4709932E-002  0.4580115E+03  0.7546771E-02  0.1025360E+00
         21   -1    0    0  502  501  0.00000000000E+00  0.00000000000E+00  0.27502425739E+03  0.27502425739E+03  0.00000000000E+00 0. -1.
         21   -1    0    0  501  502 -0.00000000000E+00 -0.00000000000E+00 -0.19068726436E+03  0.19068726436E+03  0.00000000000E+00 0. -1.
      99926    2    1    2    0    0  0.00000000000E+00 -0.14210854715E-13  0.84336993031E+02  0.46571152175E+03  0.45801145520E+03 0.  0.
      99925    2    3    3    0    0 -0.21760351760E+02  0.81282485419E+02  0.13494958845E+03  0.30668479991E+03  0.26222856390E+03 0.  0.
         25    1    3    3    0    0  0.21760351760E+02 -0.81282485419E+02 -0.50612595422E+02  0.15902672184E+03  0.12509000000E+03 0.  0.
         25    1    4    4    0    0 -0.26116178870E+02  0.17057164542E+02  0.33388618674E+02  0.13317398251E+03  0.12509000000E+03 0.  0.
         25    1    4    4    0    0  0.43558271098E+01  0.64225320877E+02  0.10156096978E+03  0.17351081740E+03  0.12509000000E+03 0.  0.
<mgrwt>
<rscale>  2 0.45801146E+03</rscale>
<asrwt>0</asrwt>
<pdfrwt beam="1">  1       21 0.40444744E-01 0.45801146E+03</pdfrwt>
<pdfrwt beam="2">  1       21 0.28042245E-01 0.45801146E+03</pdfrwt>
<totfact> 0.66159335E+04</totfact>
</mgrwt>
</event>
<event>
 7    0  0.4709932E-002  0.4541519E+03  0.7546771E-02  0.1026491E+00
         21   -1    0    0  502  501  0.00000000000E+00  0.00000000000E+00  0.21044466388E+03  0.21044466388E+03  0.00000000000E+00 0.  1.
         21   -1    0    0  501  502 -0.00000000000E+00 -0.00000000000E+00 -0.24502155589E+03  0.24502155589E+03  0.00000000000E+00 0.  1.
      99926    2    1    2    0    0  0.00000000000E+00  0.00000000000E+00 -0.34576892013E+02  0.45546621977E+03  0.45415186435E+03 0.  0.
      99925    2    3    3    0    0 -0.96809980898E+02  0.54336710615E+02 -0.42684021992E+01  0.28549338907E+03  0.26298974395E+03 0.  0.
         25    1    4    4    0    0 -0.22703211720E+02 -0.58647385356E+01 -0.12716156706E+02  0.12790246175E+03  0.12509000000E+03 0.  0.
         25    1    3    3    0    0  0.96809980898E+02 -0.54336710615E+02 -0.30308489814E+02  0.16997283070E+03  0.12509000000E+03 0.  0.
         25    1    4    4    0    0 -0.74106769178E+02  0.60201449151E+02  0.84477545073E+01  0.15759092732E+03  0.12509000000E+03 0.  0.
<mgrwt>
<rscale>  2 0.45415186E+03</rscale>
<asrwt>0</asrwt>
<pdfrwt beam="1">  1       21 0.30947745E-01 0.45415186E+03</pdfrwt>
<pdfrwt beam="2">  1       21 0.36032582E-01 0.45415186E+03</pdfrwt>
<totfact> 0.68977278E+04</totfact>
</mgrwt>
</event>
<event>
 7    0  0.4709932E-002  0.4630452E+03  0.7546771E-02  0.1023902E+00
         21   -1    0    0  502  501  0.00000000000E+00  0.00000000000E+00  0.18440496270E+03  0.18440496270E+03  0.00000000000E+00 0. -1.
         21   -1    0    0  501  502 -0.00000000000E+00 -0.00000000000E+00 -0.29067936248E+03  0.29067936248E+03  0.00000000000E+00 0. -1.
      99926    2    1    2    0    0  0.00000000000E+00  0.71054273576E-14 -0.10627439978E+03  0.47508432517E+03  0.46304521159E+03 0.  0.
      99925    2    3    3    0    0 -0.88010422980E+02 -0.42327427297E+02 -0.13896358359E+03  0.31305489423E+03  0.26297346554E+03 0.  0.
         25    1    4    4    0    0 -0.22985861202E+02  0.14324863915E+02 -0.53408336939E+02  0.13868493103E+03  0.12509000000E+03 0.  0.
         25    1    3    3    0    0  0.88010422980E+02  0.42327427297E+02  0.32689183810E+02  0.16202943095E+03  0.12509000000E+03 0.  0.
         25    1    4    4    0    0 -0.65024561778E+02 -0.56652291212E+02 -0.85555246653E+02  0.17436996319E+03  0.12509000000E+03 0.  0.
<mgrwt>
<rscale>  2 0.46304521E+03</rscale>
<asrwt>0</asrwt>
<pdfrwt beam="1">  1       21 0.27118377E-01 0.46304521E+03</pdfrwt>
<pdfrwt beam="2">  1       21 0.42746965E-01 0.46304521E+03</pdfrwt>
<totfact> 0.62945363E+04</totfact>
</mgrwt>
</event>
<event>
 7    0  0.4709932E-002  0.4544341E+03  0.7546771E-02  0.1026408E+00
         21   -1    0    0  502  501  0.00000000000E+00  0.00000000000E+00  0.26078897756E+03  0.26078897756E+03  0.00000000000E+00 0. -1.
         21   -1    0    0  501  502 -0.00000000000E+00 -0.00000000000E+00 -0.19796694827E+03  0.19796694827E+03  0.00000000000E+00 0. -1.
      99926    2    1    2    0    0  0.00000000000E+00  0.71054273576E-14  0.62822029284E+02  0.45875592583E+03  0.45443414498E+03 0.  0.
      99925    2    3    3    0    0  0.10379727957E+03  0.43751310230E+02  0.41362551319E+02  0.28906187854E+03  0.26297881394E+03 0.  0.
         25    1    4    4    0    0  0.63960994460E+02  0.46010569891E+02  0.53462678846E+02  0.15720606694E+03  0.12509000000E+03 0.  0.
         25    1    4    4    0    0  0.39836285110E+02 -0.22592596613E+01 -0.12100127527E+02  0.13185581160E+03  0.12509000000E+03 0.  0.
         25    1    3    3    0    0 -0.10379727957E+03 -0.43751310230E+02  0.21459477965E+02  0.16969404730E+03  0.12509000000E+03 0.  0.
<mgrwt>
<rscale>  2 0.45443414E+03</rscale>
<asrwt>0</asrwt>
<pdfrwt beam="1">  1       21 0.38351321E-01 0.45443414E+03</pdfrwt>
<pdfrwt beam="2">  1       21 0.29112786E-01 0.45443414E+03</pdfrwt>
<totfact> 0.68580283E+04</totfact>
</mgrwt>
</event>
<event>
 7    0  0.4709932E-002  0.4534663E+03  0.7546771E-02  0.1026693E+00
         21   -1    0    0  502  501  0.00000000000E+00  0.00000000000E+00  0.38691593124E+02  0.38691593124E+02  0.00000000000E+00 0. -1.
         21   -1    0    0  501  502 -0.00000000000E+00 -0.00000000000E+00 -0.13286585566E+04  0.13286585566E+04  0.00000000000E+00 0. -1.
      99926    2    1    2    0    0  0.00000000000E+00 -0.35527136788E-14 -0.12899669634E+04  0.13673501497E+04  0.45346627778E+03 0.  0.
      99925    2    3    3    0    0 -0.53969785353E+02  0.30945104127E+02 -0.53313450221E+03  0.59773127020E+03  0.26302079143E+03 0.  0.
         25    1    4    4    0    0  0.67508754920E+01 -0.21952170938E+01 -0.21268509369E+03  0.24684580303E+03  0.12509000000E+03 0.  0.
         25    1    4    4    0    0 -0.60720660845E+02  0.33140321221E+02 -0.32044940853E+03  0.35088546717E+03  0.12509000000E+03 0.  0.
         25    1    3    3    0    0  0.53969785353E+02 -0.30945104127E+02 -0.75683246121E+03  0.76961887948E+03  0.12509000000E+03 0.  0.
<mgrwt>
<rscale>  2 0.45346628E+03</rscale>
<asrwt>0</asrwt>
<pdfrwt beam="1">  1       21 0.56899410E-02 0.45346628E+03</pdfrwt>
<pdfrwt beam="2">  1       21 0.19539094E+00 0.45346628E+03</pdfrwt>
<totfact> 0.27542084E+04</totfact>
</mgrwt>
</event>
<event>
 7    0  0.4709932E-002  0.4512799E+03  0.7546771E-02  0.1027341E+00
         21   -1    0    0  502  501  0.00000000000E+00  0.00000000000E+00  0.56971800851E+03  0.56971800851E+03  0.00000000000E+00 0. -1.
         21   -1    0    0  501  502 -0.00000000000E+00 -0.00000000000E+00 -0.89365927285E+02  0.89365927285E+02  0.00000000000E+00 0. -1.
      99926    2    1    2    0    0 -0.14210854715E-13 -0.71054273576E-14  0.48035208123E+03  0.65908393580E+03  0.45127986049E+03 0.  0.
      99925    2    3    3    0    0 -0.77470916737E+02 -0.50843080489E+02  0.21834458301E+03  0.35431812571E+03  0.26321135140E+03 0.  0.
         25    1    4    4    0    0 -0.20229919974E+02 -0.23323754000E+02  0.15161291556E+03  0.19896540259E+03  0.12509000000E+03 0.  0.
         25    1    4    4    0    0 -0.57240996763E+02 -0.27519326489E+02  0.66731667444E+02  0.15535272312E+03  0.12509000000E+03 0.  0.
         25    1    3    3    0    0  0.77470916737E+02  0.50843080489E+02  0.26200749822E+03  0.30476581008E+03  0.12509000000E+03 0.  0.
<mgrwt>
<rscale>  2 0.45127986E+03</rscale>
<asrwt>0</asrwt>
<pdfrwt beam="1">  1       21 0.83782059E-01 0.45127986E+03</pdfrwt>
<pdfrwt beam="2">  1       21 0.13142048E-01 0.45127986E+03</pdfrwt>
<totfact> 0.56829710E+04</totfact>
</mgrwt>
</event>
<event>
 7    0  0.4709932E-002  0.4572827E+03  0.7546771E-02  0.1025572E+00
         21   -1    0    0  502  501  0.00000000000E+00  0.00000000000E+00  0.34861445727E+03  0.34861445727E+03  0.00000000000E+00 0.  1.
         21   -1    0    0  501  502 -0.00000000000E+00 -0.00000000000E+00 -0.14995612816E+03  0.14995612816E+03  0.00000000000E+00 0.  1.
      99926    2    1    2    0    0  0.00000000000E+00  0.71054273576E-14  0.19865832911E+03  0.49857058543E+03  0.45728273194E+03 0.  0.
      99925    2    3    3    0    0 -0.48591682164E+02  0.55708296340E+02  0.22125623615E+03  0.35152386034E+03  0.26296413538E+03 0.  0.
         25    1    3    3    0    0  0.48591682164E+02 -0.55708296340E+02 -0.22597907037E+02  0.14704672509E+03  0.12509000000E+03 0.  0.
         25    1    4    4    0    0 -0.46803457852E+02 -0.46328235334E+01  0.96646841960E+02  0.16492467032E+03  0.12509000000E+03 0.  0.
         25    1    4    4    0    0 -0.17882243118E+01  0.60341119873E+02  0.12460939419E+03  0.18659919001E+03  0.12509000000E+03 0.  0.
<mgrwt>
<rscale>  2 0.45728273E+03</rscale>
<asrwt>0</asrwt>
<pdfrwt beam="1">  1       21 0.51266832E-01 0.45728273E+03</pdfrwt>
<pdfrwt beam="2">  1       21 0.22052372E-01 0.45728273E+03</pdfrwt>
<totfact> 0.64199911E+04</totfact>
</mgrwt>
</event>
<event>
 7    0  0.4709932E-002  0.4479546E+03  0.7546771E-02  0.1028334E+00
         21   -1    0    0  502  501  0.00000000000E+00  0.00000000000E+00  0.87198027486E+02  0.87198027486E+02  0.00000000000E+00 0.  1.
         21   -1    0    0  501  502 -0.00000000000E+00 -0.00000000000E+00 -0.57530920425E+03  0.57530920425E+03  0.00000000000E+00 0.  1.
      99926    2    1    2    0    0  0.00000000000E+00  0.00000000000E+00 -0.48811117676E+03  0.66250723174E+03  0.44795458611E+03 0.  0.
      99925    2    3    3    0    0  0.40194945501E+02 -0.45782458085E+02 -0.18015249579E+03  0.32457569370E+03  0.26302621939E+03 0.  0.
         25    1    3    3    0    0 -0.40194945501E+02  0.45782458085E+02 -0.30795868098E+03  0.33793153804E+03  0.12509000000E+03 0.  0.
         25    1    4    4    0    0  0.26548965638E+02 -0.61037841338E+02 -0.77753935804E+02  0.16162811725E+03  0.12509000000E+03 0.  0.
         25    1    4    4    0    0  0.13645979864E+02  0.15255383252E+02 -0.10239855998E+03  0.16294757645E+03  0.12509000000E+03 0.  0.
<mgrwt>
<rscale>  2 0.44795459E+03</rscale>
<asrwt>0</asrwt>
<pdfrwt beam="1">  1       21 0.12823240E-01 0.44795459E+03</pdfrwt>
<pdfrwt beam="2">  1       21 0.84604292E-01 0.44795459E+03</pdfrwt>
<totfact> 0.58148882E+04</totfact>
</mgrwt>
</event>
<event>
 7    0  0.4709932E-002  0.4535814E+03  0.7546771E-02  0.1026659E+00
         21   -1    0    0  502  501  0.00000000000E+00  0.00000000000E+00  0.93935144425E+03  0.93935144425E+03  0.00000000000E+00 0. -1.
         21   -1    0    0  501  502 -0.00000000000E+00 -0.00000000000E+00 -0.54754826801E+02  0.54754826801E+02  0.00000000000E+00 0. -1.
      99926    2    1    2    0    0 -0.14210854715E-13  0.00000000000E+00  0.88459661745E+03  0.99410627105E+03  0.45358141776E+03 0.  0.
      99925    2    3    3    0    0  0.10623765130E+03 -0.30727107173E+02  0.52254298009E+03  0.59540721400E+03  0.26311212586E+03 0.  0.
         25    1    4    4    0    0  0.47184852769E+02 -0.94045403776E+00  0.33328414757E+03  0.35910043985E+03  0.12509000000E+03 0.  0.
         25    1    3    3    0    0 -0.10623765130E+03  0.30727107173E+02  0.36205363736E+03  0.39869905705E+03  0.12509000000E+03 0.  0.
         25    1    4    4    0    0  0.59052798528E+02 -0.29786653135E+02  0.18925883252E+03  0.23630677415E+03  0.12509000000E+03 0.  0.
<mgrwt>
<rscale>  2 0.45358142E+03</rscale>
<asrwt>0</asrwt>
<pdfrwt beam="1">  1       21 0.13813991E+00 0.45358142E+03</pdfrwt>
<pdfrwt beam="2">  1       21 0.80521810E-02 0.45358142E+03</pdfrwt>
<totfact> 0.39836352E+04</totfact>
</mgrwt>
</event>
<event>
 7    0  0.4709932E-002  0.4554448E+03  0.7546771E-02  0.1026111E+00
         21   -1    0    0  502  501  0.00000000000E+00  0.00000000000E+00  0.50526357715E+02  0.50526357715E+02  0.00000000000E+00 0. -1.
         21   -1    0    0  501  502 -0.00000000000E+00 -0.00000000000E+00 -0.10263452581E+04  0.10263452581E+04  0.00000000000E+00 0. -1.
      99926    2    1    2    0    0  0.00000000000E+00  0.00000000000E+00 -0.97581890037E+03  0.10768716158E+04  0.45544478326E+03 0.  0.
      99925    2    3    3    0    0  0.82875730960E+02 -0.76929846294E+02 -0.58933552684E+03  0.65520409968E+03  0.26303889639E+03 0.  0.
         25    1    4    4    0    0  0.57737579001E+02 -0.78722717415E+02 -0.33166840299E+03  0.36767149999E+03  0.12509000000E+03 0.  0.
         25    1    4    4    0    0  0.25138151959E+02  0.17928711206E+01 -0.25766712385E+03  0.28753259968E+03  0.12509000000E+03 0.  0.
         25    1    3    3    0    0 -0.82875730960E+02  0.76929846294E+02 -0.38648337353E+03  0.42166751612E+03  0.12509000000E+03 0.  0.
<mgrwt>
<rscale>  2 0.45544478E+03</rscale>
<asrwt>0</asrwt>
<pdfrwt beam="1">  1       21 0.74303469E-02 0.45544478E+03</pdfrwt>
<pdfrwt beam="2">  1       21 0.15093312E+00 0.45544478E+03</pdfrwt>
<totfact> 0.36180843E+04</totfact>
</mgrwt>
</event>
<event>
 7    0  0.4709932E-002  0.4561002E+03  0.7546771E-02  0.1025918E+00
         21   -1    0    0  502  501  0.00000000000E+00  0.00000000000E+00  0.54051920365E+03  0.54051920365E+03  0.00000000000E+00 0. -1.
         21   -1    0    0  501  502 -0.00000000000E+00 -0.00000000000E+00 -0.96216478305E+02  0.96216478305E+02  0.00000000000E+00 0. -1.
      99926    2    1    2    0    0  0.00000000000E+00  0.00000000000E+00  0.44430272535E+03  0.63673568196E+03  0.45610022684E+03 0.  0.
      99925    2    3    3    0    0 -0.65296362570E+02  0.73357835071E+02  0.36067417355E+03  0.45705198846E+03  0.26299367628E+03 0.  0.
         25    1    4    4    0    0 -0.20803161446E+02  0.28016051311E+02  0.23596433438E+03  0.26934057596E+03  0.12509000000E+03 0.  0.
         25    1    3    3    0    0  0.65296362570E+02 -0.73357835071E+02  0.83628551801E+02  0.17968369349E+03  0.12509000000E+03 0.  0.
         25    1    4    4    0    0 -0.44493201124E+02  0.45341783760E+02  0.12470983917E+03  0.18771141251E+03  0.12509000000E+03 0.  0.
<mgrwt>
<rscale>  2 0.45610023E+03</rscale>
<asrwt>0</asrwt>
<pdfrwt beam="1">  1       21 0.79488117E-01 0.45610023E+03</pdfrwt>
<pdfrwt beam="2">  1       21 0.14149482E-01 0.45610023E+03</pdfrwt>
<totfact> 0.55984464E+04</totfact>
</mgrwt>
</event>
<event>
 7    0  0.4709932E-002  0.4554589E+03  0.7546771E-02  0.1026107E+00
         21   -1    0    0  502  501  0.00000000000E+00  0.00000000000E+00  0.12425860731E+03  0.12425860731E+03  0.00000000000E+00 0. -1.
         21   -1    0    0  501  502 -0.00000000000E+00 -0.00000000000E+00 -0.41736097890E+03  0.41736097890E+03  0.00000000000E+00 0. -1.
      99926    2    1    2    0    0 -0.14210854715E-13  0.00000000000E+00 -0.29310237159E+03  0.54161958620E+03  0.45545886305E+03 0.  0.
      99925    2    3    3    0    0 -0.10198048114E+03  0.22527568092E+02 -0.13127748021E+03  0.31196263894E+03  0.26301977383E+03 0.  0.
         25    1    4    4    0    0 -0.90821061518E+02  0.27270758869E+02 -0.65183651739E+02  0.16996639685E+03  0.12509000000E+03 0.  0.
         25    1    4    4    0    0 -0.11159419617E+02 -0.47431907776E+01 -0.66093828474E+02  0.14199624209E+03  0.12509000000E+03 0.  0.
         25    1    3    3    0    0  0.10198048114E+03 -0.22527568092E+02 -0.16182489138E+03  0.22965694726E+03  0.12509000000E+03 0.  0.
<mgrwt>
<rscale>  2 0.45545886E+03</rscale>
<asrwt>0</asrwt>
<pdfrwt beam="1">  1       21 0.18273325E-01 0.45545886E+03</pdfrwt>
<pdfrwt beam="2">  1       21 0.61376615E-01 0.45545886E+03</pdfrwt>
<totfact> 0.62197554E+04</totfact>
</mgrwt>
</event>
<event>
 7    0  0.4709932E-002  0.4465499E+03  0.7546771E-02  0.1028756E+00
         21   -1    0    0  502  501  0.00000000000E+00  0.00000000000E+00  0.23375735801E+04  0.23375735801E+04  0.00000000000E+00 0. -1.
         21   -1    0    0  501  502 -0.00000000000E+00 -0.00000000000E+00 -0.21326262320E+02  0.21326262320E+02  0.00000000000E+00 0. -1.
      99926    2    1    2    0    0  0.88817841970E-15 -0.35527136788E-14  0.23162473178E+04  0.23588998424E+04  0.44654991820E+03 0.  0.
      99925    2    3    3    0    0 -0.47441350922E+01  0.19036800180E+02  0.20140108662E+04  0.20312120530E+04  0.26305461116E+03 0.  0.
         25    1    3    3    0    0  0.47441350922E+01 -0.19036800180E+02  0.30223645158E+03  0.32768778943E+03  0.12509000000E+03 0.  0.
         25    1    4    4    0    0  0.30003513065E+02  0.28865831129E+00  0.11730864666E+04  0.11801184942E+04  0.12509000000E+03 0.  0.
         25    1    4    4    0    0 -0.34747648157E+02  0.18748141868E+02  0.84092439958E+03  0.85109355878E+03  0.12509000000E+03 0.  0.
<mgrwt>
<rscale>  2 0.44654992E+03</rscale>
<asrwt>0</asrwt>
<pdfrwt beam="1">  1       21 0.34376065E+00 0.44654992E+03</pdfrwt>
<pdfrwt beam="2">  1       21 0.31362166E-02 0.44654992E+03</pdfrwt>
<totfact> 0.92799754E+03</totfact>
</mgrwt>
</event>
<event>
 7    0  0.4709932E-002  0.4544918E+03  0.7546771E-02  0.1026391E+00
         21   -1    0    0  502  501  0.00000000000E+00  0.00000000000E+00  0.29040391618E+02  0.29040391618E+02  0.00000000000E+00 0. -1.
         21   -1    0    0  501  502 -0.00000000000E+00 -0.00000000000E+00 -0.17782372994E+04  0.17782372994E+04  0.00000000000E+00 0. -1.
      99926    2    1    2    0    0  0.00000000000E+00  0.00000000000E+00 -0.17491969078E+04  0.18072776910E+04  0.45449183739E+03 0.  0.
      99925    2    3    3    0    0 -0.71171841524E+02  0.28998978874E+02 -0.14289258037E+04  0.14549604192E+04  0.26301045074E+03 0.  0.
         25    1    4    4    0    0 -0.51252641105E+02 -0.21450219029E+02 -0.66056951734E+03  0.67460102316E+03  0.12509000000E+03 0.  0.
         25    1    3    3    0    0  0.71171841524E+02 -0.28998978874E+02 -0.32027110409E+03  0.35231727181E+03  0.12509000000E+03 0.  0.
         25    1    4    4    0    0 -0.19919200419E+02  0.50449197903E+02 -0.76835628633E+03  0.78035939602E+03  0.12509000000E+03 0.  0.
<mgrwt>
<rscale>  2 0.45449184E+03</rscale>
<asrwt>0</asrwt>
<pdfrwt beam="1">  1       21 0.42706460E-02 0.45449184E+03</pdfrwt>
<pdfrwt beam="2">  1       21 0.26150548E+00 0.45449184E+03</pdfrwt>
<totfact> 0.17187749E+04</totfact>
</mgrwt>
</event>
<event>
 7    0  0.4709932E-002  0.4449830E+03  0.7546771E-02  0.1029229E+00
         21   -1    0    0  502  501  0.00000000000E+00  0.00000000000E+00  0.22141404989E+03  0.22141404989E+03  0.00000000000E+00 0. -1.
         21   -1    0    0  501  502 -0.00000000000E+00 -0.00000000000E+00 -0.22357421194E+03  0.22357421194E+03  0.00000000000E+00 0. -1.
      99926    2    1    2    0    0  0.71054273576E-14 -0.71054273576E-14 -0.21601620522E+01  0.44498826183E+03  0.44498301863E+03 0.  0.
      99925    2    3    3    0    0 -0.43237152113E+02  0.50762581336E+02 -0.80575094460E+02  0.28299227203E+03  0.26295624958E+03 0.  0.
         25    1    4    4    0    0  0.12448693993E+02  0.46996876380E+02 -0.43651119202E+02  0.14112620125E+03  0.12509000000E+03 0.  0.
         25    1    4    4    0    0 -0.55685846105E+02  0.37657049563E+01 -0.36923975257E+02  0.14186607078E+03  0.12509000000E+03 0.  0.
         25    1    3    3    0    0  0.43237152113E+02 -0.50762581336E+02  0.78414932407E+02  0.16199598980E+03  0.12509000000E+03 0.  0.
<mgrwt>
<rscale>  2 0.44498302E+03</rscale>
<asrwt>0</asrwt>
<pdfrwt beam="1">  1       21 0.32560890E-01 0.44498302E+03</pdfrwt>
<pdfrwt beam="2">  1       21 0.32878560E-01 0.44498302E+03</pdfrwt>
<totfact> 0.75111735E+04</totfact>
</mgrwt>
</event>
<event>
 7    0  0.4709932E-002  0.4565070E+03  0.7546771E-02  0.1025799E+00
         21   -1    0    0  502  501  0.00000000000E+00  0.00000000000E+00  0.70277333157E+03  0.70277333157E+03  0.00000000000E+00 0. -1.
         21   -1    0    0  501  502 -0.00000000000E+00 -0.00000000000E+00 -0.74134364643E+02  0.74134364643E+02  0.00000000000E+00 0. -1.
      99926    2    1    2    0    0  0.35527136788E-14  0.00000000000E+00  0.62863896693E+03  0.77690769622E+03  0.45650697442E+03 0.  0.
      99925    2    3    3    0    0 -0.29982289697E+02  0.60569749435E+02  0.23776581143E+03  0.36097865896E+03  0.26306915231E+03 0.  0.
         25    1    3    3    0    0  0.29982289697E+02 -0.60569749435E+02  0.39087315550E+03  0.41592903725E+03  0.12509000000E+03 0.  0.
         25    1    4    4    0    0  0.21515769794E+01  0.31902387790E+02  0.16654859469E+03  0.21073285013E+03  0.12509000000E+03 0.  0.
         25    1    4    4    0    0 -0.32133866677E+02  0.28667361645E+02  0.71217216740E+02  0.15024580883E+03  0.12509000000E+03 0.  0.
<mgrwt>
<rscale>  2 0.45650697E+03</rscale>
<asrwt>0</asrwt>
<pdfrwt beam="1">  1       21 0.10334902E+00 0.45650697E+03</pdfrwt>
<pdfrwt beam="2">  1       21 0.10902113E-01 0.45650697E+03</pdfrwt>
<totfact> 0.48327862E+04</totfact>
</mgrwt>
</event>
<event>
 7    0  0.4709932E-002  0.4477103E+03  0.7546771E-02  0.1028407E+00
         21   -1    0    0  502  501  0.00000000000E+00  0.00000000000E+00  0.20308053427E+03  0.20308053427E+03  0.00000000000E+00 0.  1.
         21   -1    0    0  501  502 -0.00000000000E+00 -0.00000000000E+00 -0.24675495350E+03  0.24675495350E+03  0.00000000000E+00 0.  1.
      99926    2    1    2    0    0 -0.35527136788E-14  0.00000000000E+00 -0.43674419225E+02  0.44983548777E+03  0.44771029826E+03 0.  0.
      99925    2    3    3    0    0  0.83775795920E+01  0.76230490002E+02  0.46238479357E+02  0.27775088975E+03  0.26291878658E+03 0.  0.
         25    1    4    4    0    0 -0.22048758821E+02  0.67852291211E+02  0.35361674411E+02  0.14828363802E+03  0.12509000000E+03 0.  0.
         25    1    3    3    0    0 -0.83775795920E+01 -0.76230490002E+02 -0.89912898581E+02  0.17208459802E+03  0.12509000000E+03 0.  0.
         25    1    4    4    0    0  0.30426338413E+02  0.83781987907E+01  0.10876804946E+02  0.12946725173E+03  0.12509000000E+03 0.  0.
<mgrwt>
<rscale>  2 0.44771030E+03</rscale>
<asrwt>0</asrwt>
<pdfrwt beam="1">  1       21 0.29864785E-01 0.44771030E+03</pdfrwt>
<pdfrwt beam="2">  1       21 0.36287493E-01 0.44771030E+03</pdfrwt>
<totfact> 0.73084925E+04</totfact>
</mgrwt>
</event>
<event>
 7    0  0.4709932E-002  0.4617789E+03  0.7546771E-02  0.1024267E+00
         21   -1    0    0  502  501  0.00000000000E+00  0.00000000000E+00  0.73884234531E+03  0.73884234531E+03  0.00000000000E+00 0.  1.
         21   -1    0    0  501  502 -0.00000000000E+00 -0.00000000000E+00 -0.72153331765E+02  0.72153331765E+02  0.00000000000E+00 0.  1.
      99926    2    1    2    0    0 -0.26645352591E-14  0.00000000000E+00  0.66668901354E+03  0.81099567707E+03  0.46177889455E+03 0.  0.
      99925    2    3    3    0    0 -0.60890124783E+01 -0.37461596225E+02  0.61591587298E+03  0.67076063449E+03  0.26292017597E+03 0.  0.
         25    1    3    3    0    0  0.60890124783E+01  0.37461596225E+02  0.50773140558E+02  0.14023504258E+03  0.12509000000E+03 0.  0.
         25    1    4    4    0    0  0.28204897939E+02 -0.43761799956E+02  0.29869519150E+03  0.32798923294E+03  0.12509000000E+03 0.  0.
         25    1    4    4    0    0 -0.34293910417E+02  0.63002037309E+01  0.31722068149E+03  0.34277140155E+03  0.12509000000E+03 0.  0.
<mgrwt>
<rscale>  2 0.46177889E+03</rscale>
<asrwt>0</asrwt>
<pdfrwt beam="1">  1       21 0.10865328E+00 0.46177889E+03</pdfrwt>
<pdfrwt beam="2">  1       21 0.10610785E-01 0.46177889E+03</pdfrwt>
<totfact> 0.44806118E+04</totfact>
</mgrwt>
</event>
<event>
 7    0  0.4709932E-002  0.4525376E+03  0.7546771E-02  0.1026968E+00
         21   -1    0    0  502  501  0.00000000000E+00  0.00000000000E+00  0.92814026595E+02  0.92814026595E+02  0.00000000000E+00 0.  1.
         21   -1    0    0  501  502 -0.00000000000E+00 -0.00000000000E+00 -0.55161466481E+03  0.55161466481E+03  0.00000000000E+00 0.  1.
      99926    2    1    2    0    0  0.00000000000E+00 -0.71054273576E-14 -0.45880063821E+03  0.64442869140E+03  0.45253763676E+03 0.  0.
      99925    2    3    3    0    0  0.84023246447E+02  0.52376657034E+02 -0.21811826527E+03  0.35567493317E+03  0.26291797257E+03 0.  0.
         25    1    4    4    0    0  0.21837076356E+02  0.45351681688E+02 -0.14439919450E+03  0.19756585841E+03  0.12509000000E+03 0.  0.
         25    1    3    3    0    0 -0.84023246447E+02 -0.52376657034E+02 -0.24068237294E+03  0.28875375823E+03  0.12509000000E+03 0.  0.
         25    1    4    4    0    0  0.62186170090E+02  0.70249753463E+01 -0.73719070770E+02  0.15810907477E+03  0.12509000000E+03 0.  0.
<mgrwt>
<rscale>  2 0.45253764E+03</rscale>
<asrwt>0</asrwt>
<pdfrwt beam="1">  1       21 0.13649121E-01 0.45253764E+03</pdfrwt>
<pdfrwt beam="2">  1       21 0.81119808E-01 0.45253764E+03</pdfrwt>
<totfact> 0.57125400E+04</totfact>
</mgrwt>
</event>
<event>
 7    0  0.4709932E-002  0.4547693E+03  0.7546771E-02  0.1026309E+00
         21   -1    0    0  502  501  0.00000000000E+00  0.00000000000E+00  0.10874571922E+03  0.10874571922E+03  0.00000000000E+00 0.  1.
         21   -1    0    0  501  502 -0.00000000000E+00 -0.00000000000E+00 -0.47545580146E+03  0.47545580146E+03  0.00000000000E+00 0.  1.
      99926    2    1    2    0    0  0.00000000000E+00  0.14210854715E-13 -0.36671008224E+03  0.58420152068E+03  0.45476931773E+03 0.  0.
      99925    2    3    3    0    0 -0.37774040947E+02  0.10236345332E+03 -0.26809839707E+03  0.39112918373E+03  0.26305918176E+03 0.  0.
         25    1    4    4    0    0  0.36177556286E+01  0.23833395835E+02 -0.15455398239E+03  0.20028869285E+03  0.12509000000E+03 0.  0.
         25    1    3    3    0    0  0.37774040947E+02 -0.10236345332E+03 -0.98611685168E+02  0.19307233695E+03  0.12509000000E+03 0.  0.
         25    1    4    4    0    0 -0.41391796575E+02  0.78530057482E+02 -0.11354441468E+03  0.19084049087E+03  0.12509000000E+03 0.  0.
<mgrwt>
<rscale>  2 0.45476932E+03</rscale>
<asrwt>0</asrwt>
<pdfrwt beam="1">  1       21 0.15992018E-01 0.45476932E+03</pdfrwt>
<pdfrwt beam="2">  1       21 0.69919971E-01 0.45476932E+03</pdfrwt>
<totfact> 0.59770312E+04</totfact>
</mgrwt>
</event>
<event>
 7    0  0.4709932E-002  0.4529513E+03  0.7546771E-02  0.1026846E+00
         21   -1    0    0  502  501  0.00000000000E+00  0.00000000000E+00  0.52954454652E+03  0.52954454652E+03  0.00000000000E+00 0. -1.
         21   -1    0    0  501  502 -0.00000000000E+00 -0.00000000000E+00 -0.96859103371E+02  0.96859103371E+02  0.00000000000E+00 0. -1.
      99926    2    1    2    0    0  0.00000000000E+00  0.00000000000E+00  0.43268544315E+03  0.62640364989E+03  0.45295125553E+03 0.  0.
      99925    2    3    3    0    0 -0.39937550237E+02  0.29404325250E+02  0.41048780458E+03  0.49002232595E+03  0.26298672963E+03 0.  0.
         25    1    4    4    0    0 -0.48857155529E+02  0.84044944584E+01  0.15959521925E+03  0.20874817192E+03  0.12509000000E+03 0.  0.
         25    1    4    4    0    0  0.89196052916E+01  0.20999830792E+02  0.25089258533E+03  0.28127415403E+03  0.12509000000E+03 0.  0.
         25    1    3    3    0    0  0.39937550237E+02 -0.29404325250E+02  0.22197638574E+02  0.13638132394E+03  0.12509000000E+03 0.  0.
<mgrwt>
<rscale>  2 0.45295126E+03</rscale>
<asrwt>0</asrwt>
<pdfrwt beam="1">  1       21 0.77874197E-01 0.45295126E+03</pdfrwt>
<pdfrwt beam="2">  1       21 0.14243986E-01 0.45295126E+03</pdfrwt>
<totfact> 0.58014466E+04</totfact>
</mgrwt>
</event>
<event>
 7    0  0.4709932E-002  0.4549802E+03  0.7546771E-02  0.1026247E+00
         21   -1    0    0  502  501  0.00000000000E+00  0.00000000000E+00  0.30544485068E+02  0.30544485068E+02  0.00000000000E+00 0.  1.
         21   -1    0    0  501  502 -0.00000000000E+00 -0.00000000000E+00 -0.16943075325E+04  0.16943075325E+04  0.00000000000E+00 0.  1.
      99926    2    1    2    0    0  0.88817841970E-15  0.00000000000E+00 -0.16637630474E+04  0.17248520175E+04  0.45498022430E+03 0.  0.
      99925    2    3    3    0    0  0.44973067016E+01  0.73670423268E+02 -0.13721602707E+04  0.13990802500E+04  0.26297182450E+03 0.  0.
         25    1    4    4    0    0  0.22655582010E+02  0.29734009232E+02 -0.85385481355E+03  0.86377829182E+03  0.12509000000E+03 0.  0.
         25    1    4    4    0    0 -0.18158275308E+02  0.43936414036E+02 -0.51830545712E+03  0.53530195817E+03  0.12509000000E+03 0.  0.
         25    1    3    3    0    0 -0.44973067016E+01 -0.73670423268E+02 -0.29160277674E+03  0.32577176755E+03  0.12509000000E+03 0.  0.
<mgrwt>
<rscale>  2 0.45498022E+03</rscale>
<asrwt>0</asrwt>
<pdfrwt beam="1">  1       21 0.44918371E-02 0.45498022E+03</pdfrwt>
<pdfrwt beam="2">  1       21 0.24916281E+00 0.45498022E+03</pdfrwt>
<totfact> 0.18751999E+04</totfact>
</mgrwt>
</event>
<event>
 7    0  0.4709932E-002  0.4507549E+03  0.7546771E-02  0.1027497E+00
         21   -1    0    0  502  501  0.00000000000E+00  0.00000000000E+00  0.35201486353E+03  0.35201486353E+03  0.00000000000E+00 0.  1.
         21   -1    0    0  501  502 -0.00000000000E+00 -0.00000000000E+00 -0.14429788284E+03  0.14429788284E+03  0.00000000000E+00 0.  1.
      99926    2    1    2    0    0  0.00000000000E+00  0.71054273576E-14  0.20771698069E+03  0.49631274637E+03  0.45075492027E+03 0.  0.
      99925    2    3    3    0    0  0.77526683698E+02  0.33618976053E+02  0.54817828113E+02  0.28144934513E+03  0.26280813792E+03 0.  0.
         25    1    4    4    0    0  0.59994914135E+02  0.25268152116E+02  0.63312404795E+02  0.15457631751E+03  0.12509000000E+03 0.  0.
         25    1    4    4    0    0  0.17531769563E+02  0.83508239370E+01 -0.84945766826E+01  0.12687302762E+03  0.12509000000E+03 0.  0.
         25    1    3    3    0    0 -0.77526683698E+02 -0.33618976053E+02  0.15289915258E+03  0.21486340125E+03  0.12509000000E+03 0.  0.
<mgrwt>
<rscale>  2 0.45075492E+03</rscale>
<asrwt>0</asrwt>
<pdfrwt beam="1">  1       21 0.51766892E-01 0.45075492E+03</pdfrwt>
<pdfrwt beam="2">  1       21 0.21220277E-01 0.45075492E+03</pdfrwt>
<totfact> 0.67786120E+04</totfact>
</mgrwt>
</event>
<event>
 7    0  0.4709932E-002  0.4540865E+03  0.7546771E-02  0.1026510E+00
         21   -1    0    0  502  501  0.00000000000E+00  0.00000000000E+00  0.25381279504E+03  0.25381279504E+03  0.00000000000E+00 0.  1.
         21   -1    0    0  501  502 -0.00000000000E+00 -0.00000000000E+00 -0.20309711600E+03  0.20309711600E+03  0.00000000000E+00 0.  1.
      99926    2    1    2    0    0  0.17763568394E-14  0.00000000000E+00  0.50715679036E+02  0.45690991103E+03  0.45408654098E+03 0.  0.
      99925    2    3    3    0    0  0.51061226819E+01 -0.60238456957E+02 -0.63257458107E+02  0.27720980454E+03  0.26303806861E+03 0.  0.
         25    1    4    4    0    0  0.14281269321E+02 -0.89784456194E+01 -0.64414346281E+02  0.14170844451E+03  0.12509000000E+03 0.  0.
         25    1    4    4    0    0 -0.91751466394E+01 -0.51260011338E+02  0.11568881740E+01  0.13550136002E+03  0.12509000000E+03 0.  0.
         25    1    3    3    0    0 -0.51061226819E+01  0.60238456957E+02  0.11397313714E+03  0.17970010650E+03  0.12509000000E+03 0.  0.
<mgrwt>
<rscale>  2 0.45408654E+03</rscale>
<asrwt>0</asrwt>
<pdfrwt beam="1">  1       21 0.37325411E-01 0.45408654E+03</pdfrwt>
<pdfrwt beam="2">  1       21 0.29867223E-01 0.45408654E+03</pdfrwt>
<totfact> 0.68906862E+04</totfact>
</mgrwt>
</event>
<event>
 7    0  0.4709932E-002  0.4552397E+03  0.7546771E-02  0.1026171E+00
         21   -1    0    0  502  501  0.00000000000E+00  0.00000000000E+00  0.61069733497E+02  0.61069733497E+02  0.00000000000E+00 0. -1.
         21   -1    0    0  501  502 -0.00000000000E+00 -0.00000000000E+00 -0.84838742349E+03  0.84838742349E+03  0.00000000000E+00 0. -1.
      99926    2    1    2    0    0  0.00000000000E+00  0.00000000000E+00 -0.78731768999E+03  0.90945715698E+03  0.45523969007E+03 0.  0.
      99925    2    3    3    0    0 -0.48190962742E+01  0.72149708788E+02 -0.32101026136E+03  0.42127795806E+03  0.26305650701E+03 0.  0.
         25    1    4    4    0    0 -0.16381759485E+02  0.49758201899E+02 -0.10970637415E+03  0.17443404865E+03  0.12509000000E+03 0.  0.
         25    1    4    4    0    0  0.11562663211E+02  0.22391506889E+02 -0.21130388721E+03  0.24684390940E+03  0.12509000000E+03 0.  0.
         25    1    3    3    0    0  0.48190962742E+01 -0.72149708788E+02 -0.46630742863E+03  0.48817919893E+03  0.12509000000E+03 0.  0.
<mgrwt>
<rscale>  2 0.45523969E+03</rscale>
<asrwt>0</asrwt>
<pdfrwt beam="1">  1       21 0.89808435E-02 0.45523969E+03</pdfrwt>
<pdfrwt beam="2">  1       21 0.12476285E+00 0.45523969E+03</pdfrwt>
<totfact> 0.42747101E+04</totfact>
</mgrwt>
</event>
<event>
 7    0  0.4709932E-002  0.4569599E+03  0.7546771E-02  0.1025667E+00
         21   -1    0    0  502  501  0.00000000000E+00  0.00000000000E+00  0.12559166001E+03  0.12559166001E+03  0.00000000000E+00 0.  1.
         21   -1    0    0  501  502 -0.00000000000E+00 -0.00000000000E+00 -0.41565731772E+03  0.41565731772E+03  0.00000000000E+00 0.  1.
      99926    2    1    2    0    0 -0.14210854715E-13  0.71054273576E-14 -0.29006565771E+03  0.54124897773E+03  0.45695992177E+03 0.  0.
      99925    2    3    3    0    0 -0.97993273068E+02  0.57823518516E+02 -0.20223579546E+03  0.35070283197E+03  0.26295801666E+03 0.  0.
         25    1    4    4    0    0 -0.84018526543E+02  0.23630314741E+02 -0.81344623782E+02  0.17286399421E+03  0.12509000000E+03 0.  0.
         25    1    4    4    0    0 -0.13974746525E+02  0.34193203775E+02 -0.12089117168E+03  0.17783883775E+03  0.12509000000E+03 0.  0.
         25    1    3    3    0    0  0.97993273068E+02 -0.57823518516E+02 -0.87829862251E+02  0.19054614576E+03  0.12509000000E+03 0.  0.
<mgrwt>
<rscale>  2 0.45695992E+03</rscale>
<asrwt>0</asrwt>
<pdfrwt beam="1">  1       21 0.18469361E-01 0.45695992E+03</pdfrwt>
<pdfrwt beam="2">  1       21 0.61126077E-01 0.45695992E+03</pdfrwt>
<totfact> 0.61489239E+04</totfact>
</mgrwt>
</event>
<event>
 7    0  0.4709932E-002  0.4588948E+03  0.7546771E-02  0.1025102E+00
         21   -1    0    0  502  501  0.00000000000E+00  0.00000000000E+00  0.36088903615E+02  0.36088903615E+02  0.00000000000E+00 0. -1.
         21   -1    0    0  501  502 -0.00000000000E+00 -0.00000000000E+00 -0.14587894206E+04  0.14587894206E+04  0.00000000000E+00 0. -1.
      99926    2    1    2    0    0  0.00000000000E+00  0.00000000000E+00 -0.14227005170E+04  0.14948783242E+04  0.45889480622E+03 0.  0.
      99925    2    3    3    0    0 -0.85027488828E+02  0.13241956524E+02 -0.63554031799E+03  0.69320899697E+03  0.26310111063E+03 0.  0.
         25    1    3    3    0    0  0.85027488828E+02 -0.13241956524E+02 -0.78716019899E+03  0.80166932724E+03  0.12509000000E+03 0.  0.
         25    1    4    4    0    0 -0.75818097830E+02  0.24259457929E+02 -0.29565534861E+03  0.33075141499E+03  0.12509000000E+03 0.  0.
         25    1    4    4    0    0 -0.92093909984E+01 -0.11017501405E+02 -0.33988496938E+03  0.36245758197E+03  0.12509000000E+03 0.  0.
<mgrwt>
<rscale>  2 0.45889481E+03</rscale>
<asrwt>0</asrwt>
<pdfrwt beam="1">  1       21 0.53071907E-02 0.45889481E+03</pdfrwt>
<pdfrwt beam="2">  1       21 0.21452790E+00 0.45889481E+03</pdfrwt>
<totfact> 0.23195231E+04</totfact>
</mgrwt>
</event>
<event>
 7    0  0.4709932E-002  0.4507567E+03  0.7546771E-02  0.1027497E+00
         21   -1    0    0  502  501  0.00000000000E+00  0.00000000000E+00  0.16664030468E+04  0.16664030468E+04  0.00000000000E+00 0. -1.
         21   -1    0    0  501  502 -0.00000000000E+00 -0.00000000000E+00 -0.30482058426E+02  0.30482058426E+02  0.00000000000E+00 0. -1.
      99926    2    1    2    0    0  0.00000000000E+00  0.00000000000E+00  0.16359209884E+04  0.16968851052E+04  0.45075667509E+03 0.  0.
      99925    2    3    3    0    0 -0.52034809116E+02  0.67826885833E+02  0.77817374160E+03  0.82585929892E+03  0.26302300602E+03 0.  0.
         25    1    3    3    0    0  0.52034809116E+02 -0.67826885833E+02  0.85774724679E+03  0.87102580632E+03  0.12509000000E+03 0.  0.
         25    1    4    4    0    0 -0.29666630916E+02  0.75038037004E+02  0.44238364258E+03  0.46675647967E+03  0.12509000000E+03 0.  0.
         25    1    4    4    0    0 -0.22368178200E+02 -0.72111511706E+01  0.33579009902E+03  0.35910281926E+03  0.12509000000E+03 0.  0.
<mgrwt>
<rscale>  2 0.45075668E+03</rscale>
<asrwt>0</asrwt>
<pdfrwt beam="1">  1       21 0.24505921E+00 0.45075668E+03</pdfrwt>
<pdfrwt beam="2">  1       21 0.44826568E-02 0.45075668E+03</pdfrwt>
<totfact> 0.19976595E+04</totfact>
</mgrwt>
</event>
<event>
 7    0  0.4709932E-002  0.4615380E+03  0.7546771E-02  0.1024336E+00
         21   -1    0    0  502  501  0.00000000000E+00  0.00000000000E+00  0.18813410027E+03  0.18813410027E+03  0.00000000000E+00 0. -1.
         21   -1    0    0  501  502 -0.00000000000E+00 -0.00000000000E+00 -0.28306582190E+03  0.28306582190E+03  0.00000000000E+00 0. -1.
      99926    2    1    2    0    0  0.00000000000E+00  0.00000000000E+00 -0.94931721625E+02  0.47119992217E+03  0.46153801023E+03 0.  0.
      99925    2    3    3    0    0  0.82672607019E+02 -0.64495981912E+02 -0.15622485724E+01  0.28315775075E+03  0.26302353422E+03 0.  0.
         25    1    4    4    0    0  0.70068915182E+02 -0.26561102202E+02 -0.29807844836E+02  0.14883266019E+03  0.12509000000E+03 0.  0.
         25    1    4    4    0    0  0.12603691838E+02 -0.37934879710E+02  0.28245596264E+02  0.13432509056E+03  0.12509000000E+03 0.  0.
         25    1    3    3    0    0 -0.82672607019E+02  0.64495981912E+02 -0.93369473053E+02  0.18804217142E+03  0.12509000000E+03 0.  0.
<mgrwt>
<rscale>  2 0.46153801E+03</rscale>
<asrwt>0</asrwt>
<pdfrwt beam="1">  1       21 0.27666779E-01 0.46153801E+03</pdfrwt>
<pdfrwt beam="2">  1       21 0.41627327E-01 0.46153801E+03</pdfrwt>
<totfact> 0.63963057E+04</totfact>
</mgrwt>
</event>
<event>
 7    0  0.4709932E-002  0.4684520E+03  0.7546771E-02  0.1022358E+00
         21   -1    0    0  502  501  0.00000000000E+00  0.00000000000E+00  0.33018074444E+03  0.33018074444E+03  0.00000000000E+00 0.  1.
         21   -1    0    0  501  502 -0.00000000000E+00 -0.00000000000E+00 -0.16615690021E+03  0.16615690021E+03  0.00000000000E+00 0.  1.
      99926    2    1    2    0    0  0.00000000000E+00  0.00000000000E+00  0.16402384423E+03  0.49633764465E+03  0.46845195701E+03 0.  0.
      99925    2    3    3    0    0 -0.88725535273E+02  0.50512844556E+02  0.24986645534E+02  0.28325874190E+03  0.26303500591E+03 0.  0.
         25    1    4    4    0    0 -0.61276702487E+02  0.23751232928E+02 -0.24440903227E+02  0.14340091068E+03  0.12509000000E+03 0.  0.
         25    1    3    3    0    0  0.88725535273E+02 -0.50512844556E+02  0.13903719870E+03  0.21307890275E+03  0.12509000000E+03 0.  0.
         25    1    4    4    0    0 -0.27448832786E+02  0.26761611627E+02  0.49427548761E+02  0.13985783122E+03  0.12509000000E+03 0.  0.
<mgrwt>
<rscale>  2 0.46845196E+03</rscale>
<asrwt>0</asrwt>
<pdfrwt beam="1">  1       21 0.48555992E-01 0.46845196E+03</pdfrwt>
<pdfrwt beam="2">  1       21 0.24434838E-01 0.46845196E+03</pdfrwt>
<totfact> 0.58974782E+04</totfact>
</mgrwt>
</event>
<event>
 7    0  0.4709932E-002  0.4528637E+03  0.7546771E-02  0.1026872E+00
         21   -1    0    0  502  501  0.00000000000E+00  0.00000000000E+00  0.29411714122E+03  0.29411714122E+03  0.00000000000E+00 0. -1.
         21   -1    0    0  501  502 -0.00000000000E+00 -0.00000000000E+00 -0.17432296375E+03  0.17432296375E+03  0.00000000000E+00 0. -1.
      99926    2    1    2    0    0  0.71054273576E-14 -0.88817841970E-15  0.11979417746E+03  0.46844010497E+03  0.45286365166E+03 0.  0.
      99925    2    3    3    0    0  0.43676682870E+02 -0.73736085193E+01  0.18094115453E+03  0.32232890200E+03  0.26304789855E+03 0.  0.
         25    1    4    4    0    0  0.51386759228E+02 -0.26355761455E+02  0.11489325495E+03  0.17939674835E+03  0.12509000000E+03 0.  0.
         25    1    3    3    0    0 -0.43676682870E+02  0.73736085193E+01 -0.61146977069E+02  0.14611120297E+03  0.12509000000E+03 0.  0.
         25    1    4    4    0    0 -0.77100763580E+01  0.18982152935E+02  0.66047899577E+02  0.14293215365E+03  0.12509000000E+03 0.  0.
<mgrwt>
<rscale>  2 0.45286365E+03</rscale>
<asrwt>0</asrwt>
<pdfrwt beam="1">  1       21 0.43252521E-01 0.45286365E+03</pdfrwt>
<pdfrwt beam="2">  1       21 0.25635730E-01 0.45286365E+03</pdfrwt>
<totfact> 0.68709003E+04</totfact>
</mgrwt>
</event>
<event>
 7    0  0.4709932E-002  0.4582268E+03  0.7546771E-02  0.1025297E+00
         21   -1    0    0  502  501  0.00000000000E+00  0.00000000000E+00  0.66674939285E+02  0.66674939285E+02  0.00000000000E+00 0.  1.
         21   -1    0    0  501  502 -0.00000000000E+00 -0.00000000000E+00 -0.78729650502E+03  0.78729650502E+03  0.00000000000E+00 0.  1.
      99926    2    1    2    0    0  0.00000000000E+00 -0.71054273576E-14 -0.72062156573E+03  0.85397144430E+03  0.45822678521E+03 0.  0.
      99925    2    3    3    0    0 -0.14106588124E+02  0.39856362732E+02 -0.65385740198E+03  0.70601034421E+03  0.26293265018E+03 0.  0.
         25    1    4    4    0    0  0.18609387333E+01 -0.19651753792E+02 -0.29652265641E+03  0.32243270365E+03  0.12509000000E+03 0.  0.
         25    1    3    3    0    0  0.14106588124E+02 -0.39856362732E+02 -0.66764163757E+02  0.14796110009E+03  0.12509000000E+03 0.  0.
         25    1    4    4    0    0 -0.15967526858E+02  0.59508116524E+02 -0.35733474556E+03  0.38357764056E+03  0.12509000000E+03 0.  0.
<mgrwt>
<rscale>  2 0.45822679E+03</rscale>
<asrwt>0</asrwt>
<pdfrwt beam="1">  1       21 0.98051381E-02 0.45822679E+03</pdfrwt>
<pdfrwt beam="2">  1       21 0.11577890E+00 0.45822679E+03</pdfrwt>
<totfact> 0.44134467E+04</totfact>
</mgrwt>
</event>
<event>
 7    0  0.4709932E-002  0.4396828E+03  0.7546771E-02  0.1030844E+00
         21   -1    0    0  502  501  0.00000000000E+00  0.00000000000E+00  0.31536587870E+03  0.31536587870E+03  0.00000000000E+00 0.  1.
         21   -1    0    0  501  502 -0.00000000000E+00 -0.00000000000E+00 -0.15325134247E+03  0.15325134247E+03  0.00000000000E+00 0.  1.
      99926    2    1    2    0    0  0.00000000000E+00  0.00000000000E+00  0.16211453623E+03  0.46861722117E+03  0.43968281421E+03 0.  0.
      99925    2    3    3    0    0  0.65633414423E+02 -0.50197303193E+02  0.47002141514E+02  0.27960429607E+03  0.26294837276E+03 0.  0.
         25    1    4    4    0    0 -0.24427357735E+01 -0.13330476678E+02  0.41145914422E+02  0.13237886138E+03  0.12509000000E+03 0.  0.
         25    1    4    4    0    0  0.68076150197E+02 -0.36866826515E+02  0.58562270919E+01  0.14722543469E+03  0.12509000000E+03 0.  0.
         25    1    3    3    0    0 -0.65633414423E+02  0.50197303193E+02  0.11511239472E+03  0.18901292510E+03  0.12509000000E+03 0.  0.
<mgrwt>
<rscale>  2 0.43968281E+03</rscale>
<asrwt>0</asrwt>
<pdfrwt beam="1">  1       21 0.46377335E-01 0.43968281E+03</pdfrwt>
<pdfrwt beam="2">  1       21 0.22536962E-01 0.43968281E+03</pdfrwt>
<totfact> 0.76413782E+04</totfact>
</mgrwt>
</event>
<event>
 7    0  0.4709932E-002  0.4553397E+03  0.7546771E-02  0.1026142E+00
         21   -1    0    0  502  501  0.00000000000E+00  0.00000000000E+00  0.17478057597E+03  0.17478057597E+03  0.00000000000E+00 0.  1.
         21   -1    0    0  501  502 -0.00000000000E+00 -0.00000000000E+00 -0.29656356281E+03  0.29656356281E+03  0.00000000000E+00 0.  1.
      99926    2    1    2    0    0  0.00000000000E+00  0.00000000000E+00 -0.12178298685E+03  0.47134413878E+03  0.45533965485E+03 0.  0.
      99925    2    3    3    0    0 -0.57892774933E+02 -0.96591233907E+02 -0.90823119343E+02  0.30020834079E+03  0.26304898597E+03 0.  0.
         25    1    3    3    0    0  0.57892774933E+02  0.96591233907E+02 -0.30959867503E+02  0.17113579799E+03  0.12509000000E+03 0.  0.
         25    1    4    4    0    0 -0.20261185668E+02 -0.81723029640E+02 -0.73020799913E+02  0.16753720344E+03  0.12509000000E+03 0.  0.
         25    1    4    4    0    0 -0.37631589264E+02 -0.14868204267E+02 -0.17802319431E+02  0.13267113735E+03  0.12509000000E+03 0.  0.
<mgrwt>
<rscale>  2 0.45533965E+03</rscale>
<asrwt>0</asrwt>
<pdfrwt beam="1">  1       21 0.25703026E-01 0.45533965E+03</pdfrwt>
<pdfrwt beam="2">  1       21 0.43612288E-01 0.45533965E+03</pdfrwt>
<totfact> 0.67154737E+04</totfact>
</mgrwt>
</event>
<event>
 7    0  0.4709932E-002  0.4525551E+03  0.7546771E-02  0.1026963E+00
         21   -1    0    0  502  501  0.00000000000E+00  0.00000000000E+00  0.41474234509E+03  0.41474234509E+03  0.00000000000E+00 0. -1.
         21   -1    0    0  501  502 -0.00000000000E+00 -0.00000000000E+00 -0.12345381667E+03  0.12345381667E+03  0.00000000000E+00 0. -1.
      99926    2    1    2    0    0  0.00000000000E+00  0.00000000000E+00  0.29128852842E+03  0.53819616176E+03  0.45255508145E+03 0.  0.
      99925    2    3    3    0    0 -0.65564001652E+02  0.80642450928E+02  0.22934023828E+03  0.36416472220E+03  0.26309153692E+03 0.  0.
         25    1    4    4    0    0 -0.15318086651E+02  0.13725561998E+02  0.69294009619E+02  0.14447215199E+03  0.12509000000E+03 0.  0.
         25    1    3    3    0    0  0.65564001652E+02 -0.80642450928E+02  0.61948290137E+02  0.17403143956E+03  0.12509000000E+03 0.  0.
         25    1    4    4    0    0 -0.50245915002E+02  0.66916888930E+02  0.16004622867E+03  0.21969257022E+03  0.12509000000E+03 0.  0.
<mgrwt>
<rscale>  2 0.45255508E+03</rscale>
<asrwt>0</asrwt>
<pdfrwt beam="1">  1       21 0.60991521E-01 0.45255508E+03</pdfrwt>
<pdfrwt beam="2">  1       21 0.18154973E-01 0.45255508E+03</pdfrwt>
<totfact> 0.63880446E+04</totfact>
</mgrwt>
</event>
<event>
 7    0  0.4709932E-002  0.4502918E+03  0.7546771E-02  0.1027635E+00
         21   -1    0    0  502  501  0.00000000000E+00  0.00000000000E+00  0.15624585469E+03  0.15624585469E+03  0.00000000000E+00 0. -1.
         21   -1    0    0  501  502 -0.00000000000E+00 -0.00000000000E+00 -0.32442892968E+03  0.32442892968E+03  0.00000000000E+00 0. -1.
      99926    2    1    2    0    0  0.00000000000E+00  0.00000000000E+00 -0.16818307498E+03  0.48067478437E+03  0.45029179608E+03 0.  0.
      99925    2    3    3    0    0  0.56655938400E+02 -0.46143218071E+02 -0.20421842170E+02  0.27374488815E+03  0.26302114025E+03 0.  0.
         25    1    4    4    0    0  0.13723180784E+02 -0.51932489510E+02 -0.35008163483E+02  0.14056453595E+03  0.12509000000E+03 0.  0.
         25    1    4    4    0    0  0.42932757616E+02  0.57892714391E+01  0.14586321313E+02  0.13318035219E+03  0.12509000000E+03 0.  0.
         25    1    3    3    0    0 -0.56655938400E+02  0.46143218071E+02 -0.14776123281E+03  0.20692989623E+03  0.12509000000E+03 0.  0.
<mgrwt>
<rscale>  2 0.45029180E+03</rscale>
<asrwt>0</asrwt>
<pdfrwt beam="1">  1       21 0.22977332E-01 0.45029180E+03</pdfrwt>
<pdfrwt beam="2">  1       21 0.47710136E-01 0.45029180E+03</pdfrwt>
<totfact> 0.69201429E+04</totfact>
</mgrwt>
</event>
<event>
 7    0  0.4709932E-002  0.4540490E+03  0.7546771E-02  0.1026521E+00
         21   -1    0    0  502  501  0.00000000000E+00  0.00000000000E+00  0.73127640268E+02  0.73127640268E+02  0.00000000000E+00 0. -1.
         21   -1    0    0  501  502 -0.00000000000E+00 -0.00000000000E+00 -0.70479674219E+03  0.70479674219E+03  0.00000000000E+00 0. -1.
      99926    2    1    2    0    0  0.00000000000E+00 -0.14210854715E-13 -0.63166910192E+03  0.77792438246E+03  0.45404899570E+03 0.  0.
      99925    2    3    3    0    0 -0.36471660362E+02 -0.90040599128E+02 -0.30083885325E+03  0.41113608788E+03  0.26285238373E+03 0.  0.
         25    1    3    3    0    0  0.36471660362E+02  0.90040599128E+02 -0.33083024867E+03  0.36678829458E+03  0.12509000000E+03 0.  0.
         25    1    4    4    0    0 -0.20619248657E+02 -0.55737418249E+02 -0.97270542622E+02  0.16923616567E+03  0.12509000000E+03 0.  0.
         25    1    4    4    0    0 -0.15852411705E+02 -0.34303180879E+02 -0.20356831063E+03  0.24189992221E+03  0.12509000000E+03 0.  0.
<mgrwt>
<rscale>  2 0.45404900E+03</rscale>
<asrwt>0</asrwt>
<pdfrwt beam="1">  1       21 0.10754064E-01 0.45404900E+03</pdfrwt>
<pdfrwt beam="2">  1       21 0.10364659E+00 0.45404900E+03</pdfrwt>
<totfact> 0.49217519E+04</totfact>
</mgrwt>
</event>
<event>
 7    0  0.4709932E-002  0.4288110E+03  0.7546771E-02  0.1034236E+00
         21   -1    0    0  502  501  0.00000000000E+00  0.00000000000E+00  0.56412214903E+02  0.56412214903E+02  0.00000000000E+00 0.  1.
         21   -1    0    0  501  502 -0.00000000000E+00 -0.00000000000E+00 -0.81488929869E+03  0.81488929869E+03  0.00000000000E+00 0.  1.
      99926    2    1    2    0    0  0.00000000000E+00  0.88817841970E-15 -0.75847708378E+03  0.87130151359E+03  0.42881096180E+03 0.  0.
      99925    2    3    3    0    0 -0.51778645050E+02 -0.57605978341E+01 -0.35029308792E+03  0.44121327247E+03  0.26315336173E+03 0.  0.
         25    1    3    3    0    0  0.51778645050E+02  0.57605978341E+01 -0.40818399586E+03  0.43008824112E+03  0.12509000000E+03 0.  0.
         25    1    4    4    0    0 -0.14530564093E+02 -0.36532778551E+02 -0.20634966922E+03  0.24448614539E+03  0.12509000000E+03 0.  0.
         25    1    4    4    0    0 -0.37248080958E+02  0.30772180717E+02 -0.14394341870E+03  0.19672712708E+03  0.12509000000E+03 0.  0.
<mgrwt>
<rscale>  2 0.42881096E+03</rscale>
<asrwt>0</asrwt>
<pdfrwt beam="1">  1       21 0.82959141E-02 0.42881096E+03</pdfrwt>
<pdfrwt beam="2">  1       21 0.11983666E+00 0.42881096E+03</pdfrwt>
<totfact> 0.54924515E+04</totfact>
</mgrwt>
</event>
<event>
 7    0  0.4709932E-002  0.4510704E+03  0.7546771E-02  0.1027403E+00
         21   -1    0    0  502  501  0.00000000000E+00  0.00000000000E+00  0.26724104570E+03  0.26724104570E+03  0.00000000000E+00 0. -1.
         21   -1    0    0  501  502 -0.00000000000E+00 -0.00000000000E+00 -0.19033801618E+03  0.19033801618E+03  0.00000000000E+00 0. -1.
      99926    2    1    2    0    0  0.00000000000E+00 -0.71054273576E-14  0.76903029515E+02  0.45757906188E+03  0.45107041792E+03 0.  0.
      99925    2    3    3    0    0 -0.69736264473E+02 -0.53123381537E+02  0.11474076879E+03  0.30021183892E+03  0.26320422481E+03 0.  0.
         25    1    4    4    0    0 -0.21501897803E+02  0.38090336236E+01  0.25884717043E+02  0.12959308246E+03  0.12509000000E+03 0.  0.
         25    1    3    3    0    0  0.69736264473E+02  0.53123381537E+02 -0.37837739272E+02  0.15736722296E+03  0.12509000000E+03 0.  0.
         25    1    4    4    0    0 -0.48234366670E+02 -0.56932415160E+02  0.88856051744E+02  0.17061875646E+03  0.12509000000E+03 0.  0.
<mgrwt>
<rscale>  2 0.45107042E+03</rscale>
<asrwt>0</asrwt>
<pdfrwt beam="1">  1       21 0.39300154E-01 0.45107042E+03</pdfrwt>
<pdfrwt beam="2">  1       21 0.27990885E-01 0.45107042E+03</pdfrwt>
<totfact> 0.70541974E+04</totfact>
</mgrwt>
</event>
<event>
 7    0  0.4709932E-002  0.4343756E+03  0.7546771E-02  0.1032487E+00
         21   -1    0    0  502  501  0.00000000000E+00  0.00000000000E+00  0.23718573481E+03  0.23718573481E+03  0.00000000000E+00 0. -1.
         21   -1    0    0  501  502 -0.00000000000E+00 -0.00000000000E+00 -0.19887600076E+03  0.19887600076E+03  0.00000000000E+00 0. -1.
      99926    2    1    2    0    0  0.00000000000E+00  0.00000000000E+00  0.38309734057E+02  0.43606173557E+03  0.43437564562E+03 0.  0.
      99925    2    3    3    0    0 -0.47663593907E+02 -0.72224299953E+02  0.57515883265E+02  0.28274979228E+03  0.26296615850E+03 0.  0.
         25    1    3    3    0    0  0.47663593907E+02  0.72224299953E+02 -0.19206149208E+02  0.15331194329E+03  0.12509000000E+03 0.  0.
         25    1    4    4    0    0 -0.22993928908E+02 -0.49785644571E+02 -0.96147733000E+01  0.13692071844E+03  0.12509000000E+03 0.  0.
         25    1    4    4    0    0 -0.24669664999E+02 -0.22438655382E+02  0.67130656565E+02  0.14582907384E+03  0.12509000000E+03 0.  0.
<mgrwt>
<rscale>  2 0.43437565E+03</rscale>
<asrwt>0</asrwt>
<pdfrwt beam="1">  1       21 0.34880255E-01 0.43437565E+03</pdfrwt>
<pdfrwt beam="2">  1       21 0.29246471E-01 0.43437565E+03</pdfrwt>
<totfact> 0.82758740E+04</totfact>
</mgrwt>
</event>
<event>
 7    0  0.4709932E-002  0.4493801E+03  0.7546771E-02  0.1027907E+00
         21   -1    0    0  502  501  0.00000000000E+00  0.00000000000E+00  0.62689431661E+02  0.62689431661E+02  0.00000000000E+00 0. -1.
         21   -1    0    0  501  502 -0.00000000000E+00 -0.00000000000E+00 -0.80532899747E+03  0.80532899747E+03  0.00000000000E+00 0. -1.
      99926    2    1    2    0    0  0.35527136788E-14  0.14210854715E-13 -0.74263956581E+03  0.86801842914E+03  0.44938009369E+03 0.  0.
      99925    2    3    3    0    0 -0.20301119560E+02 -0.72198576817E+02 -0.61905771601E+03  0.67685161284E+03  0.26319361715E+03 0.  0.
         25    1    3    3    0    0  0.20301119560E+02  0.72198576817E+02 -0.12358184981E+03  0.19116681629E+03  0.12509000000E+03 0.  0.
         25    1    4    4    0    0 -0.38271697791E+02 -0.48571664371E+02 -0.25383389424E+03  0.28966028964E+03  0.12509000000E+03 0.  0.
         25    1    4    4    0    0  0.17970578231E+02 -0.23626912447E+02 -0.36522382177E+03  0.38719132320E+03  0.12509000000E+03 0.  0.
<mgrwt>
<rscale>  2 0.44938009E+03</rscale>
<asrwt>0</asrwt>
<pdfrwt beam="1">  1       21 0.92190344E-02 0.44938009E+03</pdfrwt>
<pdfrwt beam="2">  1       21 0.11843073E+00 0.44938009E+03</pdfrwt>
<totfact> 0.46666085E+04</totfact>
</mgrwt>
</event>
<event>
 7    0  0.4709932E-002  0.4540615E+03  0.7546771E-02  0.1026518E+00
         21   -1    0    0  502  501  0.00000000000E+00  0.00000000000E+00  0.26756445081E+03  0.26756445081E+03  0.00000000000E+00 0. -1.
         21   -1    0    0  501  502 -0.00000000000E+00 -0.00000000000E+00 -0.19263752766E+03  0.19263752766E+03  0.00000000000E+00 0. -1.
      99926    2    1    2    0    0  0.00000000000E+00  0.00000000000E+00  0.74926923159E+02  0.46020197847E+03  0.45406146850E+03 0.  0.
      99925    2    3    3    0    0  0.10882234434E+03  0.16933509015E+02  0.24518217966E+02  0.28608250221E+03  0.26289353111E+03 0.  0.
         25    1    4    4    0    0  0.36358249212E+02 -0.27651509780E+02  0.20570295399E+02  0.13474855632E+03  0.12509000000E+03 0.  0.
         25    1    3    3    0    0 -0.10882234434E+03 -0.16933509015E+02  0.50408705192E+02  0.17411947626E+03  0.12509000000E+03 0.  0.
         25    1    4    4    0    0  0.72464095127E+02  0.44585018796E+02  0.39479225677E+01  0.15133394588E+03  0.12509000000E+03 0.  0.
<mgrwt>
<rscale>  2 0.45406147E+03</rscale>
<asrwt>0</asrwt>
<pdfrwt beam="1">  1       21 0.39347713E-01 0.45406147E+03</pdfrwt>
<pdfrwt beam="2">  1       21 0.28329048E-01 0.45406147E+03</pdfrwt>
<totfact> 0.68678353E+04</totfact>
</mgrwt>
</event>
<event>
 7    0  0.4709932E-002  0.4746637E+03  0.7546771E-02  0.1020612E+00
         21   -1    0    0  502  501  0.00000000000E+00  0.00000000000E+00  0.59848755653E+02  0.59848755653E+02  0.00000000000E+00 0. -1.
         21   -1    0    0  501  502 -0.00000000000E+00 -0.00000000000E+00 -0.94114589362E+03  0.94114589362E+03  0.00000000000E+00 0. -1.
      99926    2    1    2    0    0  0.00000000000E+00 -0.14210854715E-13 -0.88129713796E+03  0.10009946493E+04  0.47466371516E+03 0.  0.
      99925    2    3    3    0    0  0.91647195392E+02  0.78324493431E+02 -0.43689838046E+03  0.52384509361E+03  0.26267765904E+03 0.  0.
         25    1    4    4    0    0  0.70365466871E+02  0.75343084544E+02 -0.24399620621E+03  0.29293264765E+03  0.12509000000E+03 0.  0.
         25    1    3    3    0    0 -0.91647195392E+02 -0.78324493431E+02 -0.44439875751E+03  0.47714955566E+03  0.12509000000E+03 0.  0.
         25    1    4    4    0    0  0.21281728521E+02  0.29814088865E+01 -0.19290217425E+03  0.23091244596E+03  0.12509000000E+03 0.  0.
<mgrwt>
<rscale>  2 0.47466372E+03</rscale>
<asrwt>0</asrwt>
<pdfrwt beam="1">  1       21 0.88012874E-02 0.47466372E+03</pdfrwt>
<pdfrwt beam="2">  1       21 0.13840381E+00 0.47466372E+03</pdfrwt>
<totfact> 0.33654794E+04</totfact>
</mgrwt>
</event>
<event>
 7    0  0.4709932E-002  0.4536370E+03  0.7546771E-02  0.1026643E+00
         21   -1    0    0  502  501  0.00000000000E+00  0.00000000000E+00  0.18216957462E+04  0.18216957462E+04  0.00000000000E+00 0.  1.
         21   -1    0    0  501  502 -0.00000000000E+00 -0.00000000000E+00 -0.28241064418E+02  0.28241064418E+02  0.00000000000E+00 0.  1.
      99926    2    1    2    0    0  0.00000000000E+00  0.00000000000E+00  0.17934546818E+04  0.18499368106E+04  0.45363697785E+03 0.  0.
      99925    2    3    3    0    0 -0.58424044512E+02  0.78179874805E+02  0.13530330925E+04  0.13818084668E+04  0.26300309494E+03 0.  0.
         25    1    3    3    0    0  0.58424044512E+02 -0.78179874805E+02  0.44042158930E+03  0.46812834375E+03  0.12509000000E+03 0.  0.
         25    1    4    4    0    0 -0.37639380713E+02  0.58497631489E+02  0.88513559249E+03  0.89663327011E+03  0.12509000000E+03 0.  0.
         25    1    4    4    0    0 -0.20784663798E+02  0.19682243316E+02  0.46789749997E+03  0.48517519673E+03  0.12509000000E+03 0.  0.
<mgrwt>
<rscale>  2 0.45363698E+03</rscale>
<asrwt>0</asrwt>
<pdfrwt beam="1">  1       21 0.26789635E+00 0.45363698E+03</pdfrwt>
<pdfrwt beam="2">  1       21 0.41530989E-02 0.45363698E+03</pdfrwt>
<totfact> 0.16492319E+04</totfact>
</mgrwt>
</event>
<event>
 6    0  0.4709932E-002  0.4547226E+03  0.7546771E-02  0.1026323E+00
         21   -1    0    0  502  501  0.00000000000E+00  0.00000000000E+00  0.22138879775E+03  0.22138879775E+03  0.00000000000E+00 0. -1.
         21   -1    0    0  501  502 -0.00000000000E+00 -0.00000000000E+00 -0.23349490100E+03  0.23349490100E+03  0.00000000000E+00 0. -1.
      99926    2    1    2    0    0  0.00000000000E+00  0.00000000000E+00 -0.12106103247E+02  0.45488369875E+03  0.45472257659E+03 0.  0.
         25    1    3    3    0    0 -0.26780865078E+02 -0.76725984789E+02 -0.31285555844E+02  0.15241517503E+03  0.12509000000E+03 0.  0.
         25    1    3    3    0    0  0.72097504744E+02  0.81688882665E+02  0.31174497966E+02  0.16879123545E+03  0.12509000000E+03 0.  0.
         25    1    3    3    0    0 -0.45316639666E+02 -0.49628978757E+01 -0.11995045369E+02  0.13367728827E+03  0.12509000000E+03 0.  0.
<mgrwt>
<rscale>  2 0.45472258E+03</rscale>
<asrwt>0</asrwt>
<pdfrwt beam="1">  1       21 0.32557176E-01 0.45472258E+03</pdfrwt>
<pdfrwt beam="2">  1       21 0.34337486E-01 0.45472258E+03</pdfrwt>
<totfact> 0.68706279E+04</totfact>
</mgrwt>
</event>
<event>
 7    0  0.4709932E-002  0.4557550E+03  0.7546771E-02  0.1026020E+00
         21   -1    0    0  502  501  0.00000000000E+00  0.00000000000E+00  0.70087973082E+03  0.70087973082E+03  0.00000000000E+00 0.  1.
         21   -1    0    0  501  502 -0.00000000000E+00 -0.00000000000E+00 -0.74089957571E+02  0.74089957571E+02  0.00000000000E+00 0.  1.
      99926    2    1    2    0    0  0.00000000000E+00  0.00000000000E+00  0.62678977325E+03  0.77496968839E+03  0.45575497592E+03 0.  0.
      99925    2    3    3    0    0 -0.99474300776E+02  0.52743936777E+02  0.42012238612E+03  0.50844393657E+03  0.26331607990E+03 0.  0.
         25    1    4    4    0    0 -0.45907948721E+02 -0.83762052650E+01  0.23936212792E+03  0.27407925305E+03  0.12509000000E+03 0.  0.
         25    1    3    3    0    0  0.99474300776E+02 -0.52743936777E+02  0.20666738713E+03  0.26652575182E+03  0.12509000000E+03 0.  0.
         25    1    4    4    0    0 -0.53566352054E+02  0.61120142042E+02  0.18076025820E+03  0.23436468352E+03  0.12509000000E+03 0.  0.
<mgrwt>
<rscale>  2 0.45575498E+03</rscale>
<asrwt>0</asrwt>
<pdfrwt beam="1">  1       21 0.10307054E+00 0.45575498E+03</pdfrwt>
<pdfrwt beam="2">  1       21 0.10895582E-01 0.45575498E+03</pdfrwt>
<totfact> 0.48710030E+04</totfact>
</mgrwt>
</event>
<event>
 7    0  0.4709932E-002  0.4512027E+03  0.7546771E-02  0.1027364E+00
         21   -1    0    0  502  501  0.00000000000E+00  0.00000000000E+00  0.20080708645E+03  0.20080708645E+03  0.00000000000E+00 0. -1.
         21   -1    0    0  501  502 -0.00000000000E+00 -0.00000000000E+00 -0.25345707955E+03  0.25345707955E+03  0.00000000000E+00 0. -1.
      99926    2    1    2    0    0  0.14210854715E-13  0.00000000000E+00 -0.52649993105E+02  0.45426416600E+03  0.45120273796E+03 0.  0.
      99925    2    3    3    0    0 -0.65657496191E+02  0.85483763289E+02 -0.53224711914E+02  0.28913930720E+03  0.26296442425E+03 0.  0.
         25    1    4    4    0    0 -0.45126202952E+02  0.16363407463E+02  0.34564391367E+01  0.13402831928E+03  0.12509000000E+03 0.  0.
         25    1    3    3    0    0  0.65657496191E+02 -0.85483763289E+02  0.57471880825E+00  0.16512485880E+03  0.12509000000E+03 0.  0.
         25    1    4    4    0    0 -0.20531293239E+02  0.69120355825E+02 -0.56681151050E+02  0.15511098793E+03  0.12509000000E+03 0.  0.
<mgrwt>
<rscale>  2 0.45120274E+03</rscale>
<asrwt>0</asrwt>
<pdfrwt beam="1">  1       21 0.29530454E-01 0.45120274E+03</pdfrwt>
<pdfrwt beam="2">  1       21 0.37273100E-01 0.45120274E+03</pdfrwt>
<totfact> 0.70717956E+04</totfact>
</mgrwt>
</event>
<event>
 7    0  0.4709932E-002  0.4545148E+03  0.7546771E-02  0.1026384E+00
         21   -1    0    0  502  501  0.00000000000E+00  0.00000000000E+00  0.62931848830E+03  0.62931848830E+03  0.00000000000E+00 0. -1.
         21   -1    0    0  501  502 -0.00000000000E+00 -0.00000000000E+00 -0.82066438738E+02  0.82066438738E+02  0.00000000000E+00 0. -1.
      99926    2    1    2    0    0  0.14210854715E-13  0.14210854715E-13  0.54725204956E+03  0.71138492704E+03  0.45451480577E+03 0.  0.
      99925    2    3    3    0    0  0.69974292551E+02  0.81804296395E+02  0.29157173666E+03  0.40706884952E+03  0.26287378361E+03 0.  0.
         25    1    3    3    0    0 -0.69974292551E+02 -0.81804296395E+02  0.25568031291E+03  0.30431607752E+03  0.12509000000E+03 0.  0.
         25    1    4    4    0    0 -0.86090584608E+00  0.20536335665E+02  0.14791361052E+03  0.19480355879E+03  0.12509000000E+03 0.  0.
         25    1    4    4    0    0  0.70835198397E+02  0.61267960730E+02  0.14365812614E+03  0.21226529073E+03  0.12509000000E+03 0.  0.
<mgrwt>
<rscale>  2 0.45451481E+03</rscale>
<asrwt>0</asrwt>
<pdfrwt beam="1">  1       21 0.92546834E-01 0.45451481E+03</pdfrwt>
<pdfrwt beam="2">  1       21 0.12068594E-01 0.45451481E+03</pdfrwt>
<totfact> 0.52489276E+04</totfact>
</mgrwt>
</event>
<event>
 7    0  0.4709932E-002  0.4575307E+03  0.7546771E-02  0.1025500E+00
         21   -1    0    0  502  501  0.00000000000E+00  0.00000000000E+00  0.11453598565E+03  0.11453598565E+03  0.00000000000E+00 0. -1.
         21   -1    0    0  501  502 -0.00000000000E+00 -0.00000000000E+00 -0.45691835293E+03  0.45691835293E+03  0.00000000000E+00 0. -1.
      99926    2    1    2    0    0 -0.13322676296E-14  0.00000000000E+00 -0.34238236728E+03  0.57145433857E+03  0.45753073738E+03 0.  0.
      99925    2    3    3    0    0 -0.18551122417E+01 -0.81149599521E+02 -0.11225431849E+03  0.29723704174E+03  0.26298313257E+03 0.  0.
         25    1    4    4    0    0  0.32156878548E+02 -0.34126141509E+02 -0.79670882650E+02  0.15554297160E+03  0.12509000000E+03 0.  0.
         25    1    4    4    0    0 -0.34011990789E+02 -0.47023458012E+02 -0.32583435838E+02  0.14169407014E+03  0.12509000000E+03 0.  0.
         25    1    3    3    0    0  0.18551122417E+01  0.81149599521E+02 -0.23012804879E+03  0.27421729684E+03  0.12509000000E+03 0.  0.
<mgrwt>
<rscale>  2 0.45753074E+03</rscale>
<asrwt>0</asrwt>
<pdfrwt beam="1">  1       21 0.16843527E-01 0.45753074E+03</pdfrwt>
<pdfrwt beam="2">  1       21 0.67193876E-01 0.45753074E+03</pdfrwt>
<totfact> 0.59275500E+04</totfact>
</mgrwt>
</event>
<event>
 7    0  0.4709932E-002  0.4642968E+03  0.7546771E-02  0.1023542E+00
         21   -1    0    0  502  501  0.00000000000E+00  0.00000000000E+00  0.25333684065E+04  0.25333684065E+04  0.00000000000E+00 0. -1.
         21   -1    0    0  501  502 -0.00000000000E+00 -0.00000000000E+00 -0.21273206037E+02  0.21273206037E+02  0.00000000000E+00 0. -1.
      99926    2    1    2    0    0  0.00000000000E+00 -0.17763568394E-14  0.25120952004E+04  0.25546416125E+04  0.46429675027E+03 0.  0.
      99925    2    3    3    0    0 -0.12059410078E+03 -0.15980863349E+02  0.15507242514E+04  0.15775643715E+04  0.26299299844E+03 0.  0.
         25    1    4    4    0    0 -0.20104593886E+02 -0.24097279345E+02  0.71484101931E+03  0.72638148694E+03  0.12509000000E+03 0.  0.
         25    1    3    3    0    0  0.12059410078E+03  0.15980863349E+02  0.96137094905E+03  0.97707724102E+03  0.12509000000E+03 0.  0.
         25    1    4    4    0    0 -0.10048950689E+03  0.81164159960E+01  0.83588323205E+03  0.85118288454E+03  0.12509000000E+03 0.  0.
<mgrwt>
<rscale>  2 0.46429675E+03</rscale>
<asrwt>0</asrwt>
<pdfrwt beam="1">  1       21 0.37255397E+00 0.46429675E+03</pdfrwt>
<pdfrwt beam="2">  1       21 0.31284144E-02 0.46429675E+03</pdfrwt>
<totfact> 0.61333213E+03</totfact>
</mgrwt>
</event>
<event>
 7    0  0.4709932E-002  0.4565545E+03  0.7546771E-02  0.1025785E+00
         21   -1    0    0  502  501  0.00000000000E+00  0.00000000000E+00  0.96267946332E+02  0.96267946332E+02  0.00000000000E+00 0. -1.
         21   -1    0    0  501  502 -0.00000000000E+00 -0.00000000000E+00 -0.54130687045E+03  0.54130687045E+03  0.00000000000E+00 0. -1.
      99926    2    1    2    0    0 -0.14210854715E-13 -0.14210854715E-13 -0.44503892411E+03  0.63757481678E+03  0.45655449074E+03 0.  0.
      99925    2    3    3    0    0  0.75819491627E+02  0.75888297609E+02 -0.33556075494E+03  0.43973496576E+03  0.26316950969E+03 0.  0.
         25    1    4    4    0    0  0.50771909996E+02 -0.12281324031E+01 -0.15318848322E+03  0.20418989849E+03  0.12509000000E+03 0.  0.
         25    1    4    4    0    0  0.25047581631E+02  0.77116430012E+02 -0.18237227172E+03  0.23554506727E+03  0.12509000000E+03 0.  0.
         25    1    3    3    0    0 -0.75819491627E+02 -0.75888297609E+02 -0.10947816917E+03  0.19783985102E+03  0.12509000000E+03 0.  0.
<mgrwt>
<rscale>  2 0.45655449E+03</rscale>
<asrwt>0</asrwt>
<pdfrwt beam="1">  1       21 0.14157051E-01 0.45655449E+03</pdfrwt>
<pdfrwt beam="2">  1       21 0.79603951E-01 0.45655449E+03</pdfrwt>
<totfact> 0.55736092E+04</totfact>
</mgrwt>
</event>
<event>
 7    0  0.4709932E-002  0.4583852E+03  0.7546771E-02  0.1025251E+00
         21   -1    0    0  502  501  0.00000000000E+00  0.00000000000E+00  0.47321430680E+03  0.47321430680E+03  0.00000000000E+00 0.  1.
         21   -1    0    0  501  502 -0.00000000000E+00 -0.00000000000E+00 -0.11100517879E+03  0.11100517879E+03  0.00000000000E+00 0.  1.
      99926    2    1    2    0    0  0.00000000000E+00  0.17763568394E-14  0.36220912801E+03  0.58421948559E+03  0.45838516003E+03 0.  0.
      99925    2    3    3    0    0  0.75293986173E+02  0.15350964489E+02  0.33856968506E+03  0.43552124140E+03  0.26295338675E+03 0.  0.
         25    1    4    4    0    0  0.56261606986E+02 -0.24921143025E+02  0.19799904334E+03  0.24215193796E+03  0.12509000000E+03 0.  0.
         25    1    3    3    0    0 -0.75293986173E+02 -0.15350964489E+02  0.23639442947E+02  0.14869824420E+03  0.12509000000E+03 0.  0.
         25    1    4    4    0    0  0.19032379186E+02  0.40272107514E+02  0.14057064172E+03  0.19336930344E+03  0.12509000000E+03 0.  0.
<mgrwt>
<rscale>  2 0.45838516E+03</rscale>
<asrwt>0</asrwt>
<pdfrwt beam="1">  1       21 0.69590339E-01 0.45838516E+03</pdfrwt>
<pdfrwt beam="2">  1       21 0.16324291E-01 0.45838516E+03</pdfrwt>
<totfact> 0.58090137E+04</totfact>
</mgrwt>
</event>
<event>
 7    0  0.4709932E-002  0.4497218E+03  0.7546771E-02  0.1027805E+00
         21   -1    0    0  502  501  0.00000000000E+00  0.00000000000E+00  0.95372425932E+02  0.95372425932E+02  0.00000000000E+00 0.  1.
         21   -1    0    0  501  502 -0.00000000000E+00 -0.00000000000E+00 -0.53015761043E+03  0.53015761043E+03  0.00000000000E+00 0.  1.
      99926    2    1    2    0    0  0.00000000000E+00  0.00000000000E+00 -0.43478518450E+03  0.62553003637E+03  0.44972176925E+03 0.  0.
      99925    2    3    3    0    0  0.26940382001E+02 -0.57993131189E+02 -0.15379405244E+03  0.31137639268E+03  0.26308489106E+03 0.  0.
         25    1    4    4    0    0 -0.86434354172E+01  0.60689037406E+01 -0.77847445321E+02  0.14771348419E+03  0.12509000000E+03 0.  0.
         25    1    4    4    0    0  0.35583817418E+02 -0.64062034930E+02 -0.75946607124E+02  0.16366290849E+03  0.12509000000E+03 0.  0.
         25    1    3    3    0    0 -0.26940382001E+02  0.57993131189E+02 -0.28099113206E+03  0.31415364369E+03  0.12509000000E+03 0.  0.
<mgrwt>
<rscale>  2 0.44972177E+03</rscale>
<asrwt>0</asrwt>
<pdfrwt beam="1">  1       21 0.14025357E-01 0.44972177E+03</pdfrwt>
<pdfrwt beam="2">  1       21 0.77964355E-01 0.44972177E+03</pdfrwt>
<totfact> 0.59577838E+04</totfact>
</mgrwt>
</event>
<event>
 7    0  0.4709932E-002  0.4531675E+03  0.7546771E-02  0.1026782E+00
         21   -1    0    0  502  501  0.00000000000E+00  0.00000000000E+00  0.12422733786E+03  0.12422733786E+03  0.00000000000E+00 0.  1.
         21   -1    0    0  501  502 -0.00000000000E+00 -0.00000000000E+00 -0.41327621845E+03  0.41327621845E+03  0.00000000000E+00 0.  1.
      99926    2    1    2    0    0  0.00000000000E+00  0.44408920985E-15 -0.28904888059E+03  0.53750355631E+03  0.45316753820E+03 0.  0.
      99925    2    3    3    0    0  0.44737133290E+02  0.84157126334E+00 -0.61086198544E+02  0.27365395551E+03  0.26296928409E+03 0.  0.
         25    1    4    4    0    0  0.30496753688E+02  0.51744578157E+01 -0.71299153997E+02  0.14726813797E+03  0.12509000000E+03 0.  0.
         25    1    4    4    0    0  0.14240379603E+02 -0.43328865523E+01  0.10212955453E+02  0.12638581754E+03  0.12509000000E+03 0.  0.
         25    1    3    3    0    0 -0.44737133290E+02 -0.84157126334E+00 -0.22796268204E+03  0.26384960080E+03  0.12509000000E+03 0.  0.
<mgrwt>
<rscale>  2 0.45316754E+03</rscale>
<asrwt>0</asrwt>
<pdfrwt beam="1">  1       21 0.18268726E-01 0.45316754E+03</pdfrwt>
<pdfrwt beam="2">  1       21 0.60775914E-01 0.45316754E+03</pdfrwt>
<totfact> 0.63617544E+04</totfact>
</mgrwt>
</event>
<event>
 7    0  0.4709932E-002  0.4407633E+03  0.7546771E-02  0.1030513E+00
         21   -1    0    0  502  501  0.00000000000E+00  0.00000000000E+00  0.44597276237E+03  0.44597276237E+03  0.00000000000E+00 0.  1.
         21   -1    0    0  501  502 -0.00000000000E+00 -0.00000000000E+00 -0.10890365956E+03  0.10890365956E+03  0.00000000000E+00 0.  1.
      99926    2    1    2    0    0  0.00000000000E+00 -0.71054273576E-14  0.33706910282E+03  0.55487642193E+03  0.44076327381E+03 0.  0.
      99925    2    3    3    0    0  0.22894820400E+02 -0.42009753707E+02  0.10499515651E+03  0.28693087361E+03  0.26270963274E+03 0.  0.
         25    1    3    3    0    0 -0.22894820400E+02  0.42009753707E+02  0.23207394631E+03  0.26794554832E+03  0.12509000000E+03 0.  0.
         25    1    4    4    0    0  0.41741554472E+01 -0.55848912571E+02  0.33930426765E+02  0.14119244516E+03  0.12509000000E+03 0.  0.
         25    1    4    4    0    0  0.18720664953E+02  0.13839158863E+02  0.71064729743E+02  0.14573842845E+03  0.12509000000E+03 0.  0.
<mgrwt>
<rscale>  2 0.44076327E+03</rscale>
<asrwt>0</asrwt>
<pdfrwt beam="1">  1       21 0.65584229E-01 0.44076327E+03</pdfrwt>
<pdfrwt beam="2">  1       21 0.16015244E-01 0.44076327E+03</pdfrwt>
<totfact> 0.68993531E+04</totfact>
</mgrwt>
</event>
<event>
 7    0  0.4709932E-002  0.4520838E+03  0.7546771E-02  0.1027102E+00
         21   -1    0    0  502  501  0.00000000000E+00  0.00000000000E+00  0.23608340684E+02  0.23608340684E+02  0.00000000000E+00 0.  1.
         21   -1    0    0  501  502 -0.00000000000E+00 -0.00000000000E+00 -0.21642752320E+04  0.21642752320E+04  0.00000000000E+00 0.  1.
      99926    2    1    2    0    0  0.00000000000E+00  0.14210854715E-13 -0.21406668914E+04  0.21878835727E+04  0.45208382856E+03 0.  0.
      99925    2    3    3    0    0  0.15893158063E+02  0.10039966429E+03 -0.15529418217E+04  0.15784568334E+04  0.26375175467E+03 0.  0.
         25    1    3    3    0    0 -0.15893158063E+02 -0.10039966429E+03 -0.58772506961E+03  0.60942673933E+03  0.12509000000E+03 0.  0.
         25    1    4    4    0    0  0.11920581714E+01  0.10005166952E+02 -0.79223685192E+03  0.80211486834E+03  0.12509000000E+03 0.  0.
         25    1    4    4    0    0  0.14701099892E+02  0.90394497342E+02 -0.76070496982E+03  0.77634196505E+03  0.12509000000E+03 0.  0.
<mgrwt>
<rscale>  2 0.45208383E+03</rscale>
<asrwt>0</asrwt>
<pdfrwt beam="1">  1       21 0.34718143E-02 0.45208383E+03</pdfrwt>
<pdfrwt beam="2">  1       21 0.31827582E+00 0.45208383E+03</pdfrwt>
<totfact> 0.11127721E+04</totfact>
</mgrwt>
</event>
<event>
 7    0  0.4709932E-002  0.4559134E+03  0.7546771E-02  0.1025973E+00
         21   -1    0    0  502  501  0.00000000000E+00  0.00000000000E+00  0.23322571542E+03  0.23322571542E+03  0.00000000000E+00 0. -1.
         21   -1    0    0  501  502 -0.00000000000E+00 -0.00000000000E+00 -0.22280669976E+03  0.22280669976E+03  0.00000000000E+00 0. -1.
      99926    2    1    2    0    0  0.71054273576E-14  0.71054273576E-14  0.10419015668E+02  0.45603241518E+03  0.45591337753E+03 0.  0.
      99925    2    3    3    0    0  0.63415144077E+02  0.57670369773E+02 -0.68511866547E+02  0.28507936807E+03  0.26311407829E+03 0.  0.
         25    1    4    4    0    0  0.19624493800E+02 -0.11130069817E+02 -0.25018276769E+02  0.12954698562E+03  0.12509000000E+03 0.  0.
         25    1    3    3    0    0 -0.63415144077E+02 -0.57670369773E+02  0.78930882214E+02  0.17095304711E+03  0.12509000000E+03 0.  0.
         25    1    4    4    0    0  0.43790650278E+02  0.68800439590E+02 -0.43493589777E+02  0.15553238245E+03  0.12509000000E+03 0.  0.
<mgrwt>
<rscale>  2 0.45591338E+03</rscale>
<asrwt>0</asrwt>
<pdfrwt beam="1">  1       21 0.34297899E-01 0.45591338E+03</pdfrwt>
<pdfrwt beam="2">  1       21 0.32765691E-01 0.45591338E+03</pdfrwt>
<totfact> 0.67973501E+04</totfact>
</mgrwt>
</event>
<event>
 7    0  0.4709932E-002  0.4519099E+03  0.7546771E-02  0.1027154E+00
         21   -1    0    0  502  501  0.00000000000E+00  0.00000000000E+00  0.26177777300E+03  0.26177777300E+03  0.00000000000E+00 0.  1.
         21   -1    0    0  501  502 -0.00000000000E+00 -0.00000000000E+00 -0.19503430408E+03  0.19503430408E+03  0.00000000000E+00 0.  1.
      99926    2    1    2    0    0  0.00000000000E+00  0.71054273576E-14  0.66743468917E+02  0.45681207708E+03  0.45190992811E+03 0.  0.
      99925    2    3    3    0    0  0.35530691281E+02 -0.61582130605E+02  0.12729961471E+03  0.30070524275E+03  0.26298985204E+03 0.  0.
         25    1    3    3    0    0 -0.35530691281E+02  0.61582130605E+02 -0.60556145789E+02  0.15610683433E+03  0.12509000000E+03 0.  0.
         25    1    4    4    0    0  0.37192834963E+02 -0.42664626602E+02  0.10355530482E+03  0.17197321475E+03  0.12509000000E+03 0.  0.
         25    1    4    4    0    0 -0.16621436824E+01 -0.18917504003E+02  0.23744309886E+02  0.12873202799E+03  0.12509000000E+03 0.  0.
<mgrwt>
<rscale>  2 0.45190993E+03</rscale>
<asrwt>0</asrwt>
<pdfrwt beam="1">  1       21 0.38496731E-01 0.45190993E+03</pdfrwt>
<pdfrwt beam="2">  1       21 0.28681515E-01 0.45190993E+03</pdfrwt>
<totfact> 0.70125718E+04</totfact>
</mgrwt>
</event>
<event>
 7    0  0.4709932E-002  0.4516612E+03  0.7546771E-02  0.1027228E+00
         21   -1    0    0  502  501  0.00000000000E+00  0.00000000000E+00  0.66091348601E+02  0.66091348601E+02  0.00000000000E+00 0. -1.
         21   -1    0    0  501  502 -0.00000000000E+00 -0.00000000000E+00 -0.77165101454E+03  0.77165101454E+03  0.00000000000E+00 0. -1.
      99926    2    1    2    0    0 -0.14210854715E-13  0.00000000000E+00 -0.70555966594E+03  0.83774236315E+03  0.45166118364E+03 0.  0.
      99925    2    3    3    0    0 -0.99099135030E+02 -0.34114042392E+02 -0.38309075280E+03  0.47633108151E+03  0.26296077251E+03 0.  0.
         25    1    4    4    0    0 -0.52650752921E+02 -0.16197318024E+02 -0.12493476374E+03  0.18517736953E+03  0.12509000000E+03 0.  0.
         25    1    3    3    0    0  0.99099135030E+02  0.34114042392E+02 -0.32246891314E+03  0.36141128164E+03  0.12509000000E+03 0.  0.
         25    1    4    4    0    0 -0.46448382109E+02 -0.17916724368E+02 -0.25815598906E+03  0.29115371198E+03  0.12509000000E+03 0.  0.
<mgrwt>
<rscale>  2 0.45166118E+03</rscale>
<asrwt>0</asrwt>
<pdfrwt beam="1">  1       21 0.97193161E-02 0.45166118E+03</pdfrwt>
<pdfrwt beam="2">  1       21 0.11347809E+00 0.45166118E+03</pdfrwt>
<totfact> 0.47217531E+04</totfact>
</mgrwt>
</event>
<event>
 7    0  0.4709932E-002  0.4292491E+03  0.7546771E-02  0.1034097E+00
         21   -1    0    0  502  501  0.00000000000E+00  0.00000000000E+00  0.10030602231E+03  0.10030602231E+03  0.00000000000E+00 0. -1.
         21   -1    0    0  501  502 -0.00000000000E+00 -0.00000000000E+00 -0.45923152505E+03  0.45923152505E+03  0.00000000000E+00 0. -1.
      99926    2    1    2    0    0 -0.17763568394E-14  0.00000000000E+00 -0.35892550274E+03  0.55953754736E+03  0.42924905403E+03 0.  0.
      99925    2    3    3    0    0 -0.96584142958E+01 -0.40754833377E+02 -0.13244686779E+03  0.29744153137E+03  0.26301150238E+03 0.  0.
         25    1    3    3    0    0  0.96584142958E+01  0.40754833377E+02 -0.22647863494E+03  0.26209601599E+03  0.12509000000E+03 0.  0.
         25    1    4    4    0    0  0.11503346049E+02 -0.30942204186E+02 -0.26948840017E+02  0.13214951778E+03  0.12509000000E+03 0.  0.
         25    1    4    4    0    0 -0.21161760345E+02 -0.98126291907E+01 -0.10549802778E+03  0.16529201359E+03  0.12509000000E+03 0.  0.
<mgrwt>
<rscale>  2 0.42924905E+03</rscale>
<asrwt>0</asrwt>
<pdfrwt beam="1">  1       21 0.14750885E-01 0.42924905E+03</pdfrwt>
<pdfrwt beam="2">  1       21 0.67534048E-01 0.42924905E+03</pdfrwt>
<totfact> 0.75479132E+04</totfact>
</mgrwt>
</event>
<event>
 7    0  0.4709932E-002  0.4540744E+03  0.7546771E-02  0.1026514E+00
         21   -1    0    0  502  501  0.00000000000E+00  0.00000000000E+00  0.12138203681E+04  0.12138203681E+04  0.00000000000E+00 0.  1.
         21   -1    0    0  501  502 -0.00000000000E+00 -0.00000000000E+00 -0.42465827717E+02  0.42465827717E+02  0.00000000000E+00 0.  1.
      99926    2    1    2    0    0  0.00000000000E+00  0.14210854715E-13  0.11713545404E+04  0.12562861958E+04  0.45407438435E+03 0.  0.
      99925    2    3    3    0    0 -0.23694241995E+02 -0.10238886535E+03  0.62914839901E+03  0.69000013322E+03  0.26311134338E+03 0.  0.
         25    1    4    4    0    0 -0.12361824214E+02 -0.15255881534E+02  0.34216538101E+03  0.36484272321E+03  0.12509000000E+03 0.  0.
         25    1    3    3    0    0  0.23694241995E+02  0.10238886535E+03  0.54220614136E+03  0.56628606258E+03  0.12509000000E+03 0.  0.
         25    1    4    4    0    0 -0.11332417781E+02 -0.87132983815E+02  0.28698301801E+03  0.32515741001E+03  0.12509000000E+03 0.  0.
<mgrwt>
<rscale>  2 0.45407438E+03</rscale>
<asrwt>0</asrwt>
<pdfrwt beam="1">  1       21 0.17850297E+00 0.45407438E+03</pdfrwt>
<pdfrwt beam="2">  1       21 0.62449754E-02 0.45407438E+03</pdfrwt>
<totfact> 0.30631219E+04</totfact>
</mgrwt>
</event>
<event>
 7    0  0.4709932E-002  0.4181311E+03  0.7546771E-02  0.1037676E+00
         21   -1    0    0  502  501  0.00000000000E+00  0.00000000000E+00  0.49302851357E+02  0.49302851357E+02  0.00000000000E+00 0.  1.
         21   -1    0    0  501  502 -0.00000000000E+00 -0.00000000000E+00 -0.88652913966E+03  0.88652913966E+03  0.00000000000E+00 0.  1.
      99926    2    1    2    0    0  0.00000000000E+00  0.00000000000E+00 -0.83722628830E+03  0.93583199102E+03  0.41813114879E+03 0.  0.
      99925    2    3    3    0    0 -0.43911854812E+02 -0.35363338248E+02 -0.65210293397E+03  0.70540416912E+03  0.26301708810E+03 0.  0.
         25    1    4    4    0    0 -0.29033645781E+02 -0.23774954656E+02 -0.43449004410E+03  0.45369296620E+03  0.12509000000E+03 0.  0.
         25    1    4    4    0    0 -0.14878209031E+02 -0.11588383592E+02 -0.21761288987E+03  0.25171120292E+03  0.12509000000E+03 0.  0.
         25    1    3    3    0    0  0.43911854812E+02  0.35363338248E+02 -0.18512335433E+03  0.23042782190E+03  0.12509000000E+03 0.  0.
<mgrwt>
<rscale>  2 0.41813115E+03</rscale>
<asrwt>0</asrwt>
<pdfrwt beam="1">  1       21 0.72504187E-02 0.41813115E+03</pdfrwt>
<pdfrwt beam="2">  1       21 0.13037194E+00 0.41813115E+03</pdfrwt>
<totfact> 0.56278546E+04</totfact>
</mgrwt>
</event>
<event>
 7    0  0.4709932E-002  0.4561526E+03  0.7546771E-02  0.1025903E+00
         21   -1    0    0  502  501  0.00000000000E+00  0.00000000000E+00  0.17482312119E+03  0.17482312119E+03  0.00000000000E+00 0. -1.
         21   -1    0    0  501  502 -0.00000000000E+00 -0.00000000000E+00 -0.29755096739E+03  0.29755096739E+03  0.00000000000E+00 0. -1.
      99926    2    1    2    0    0  0.00000000000E+00  0.00000000000E+00 -0.12272784620E+03  0.47237408858E+03  0.45615255708E+03 0.  0.
      99925    2    3    3    0    0 -0.21823075270E+02  0.11214832762E+03 -0.73707669516E+02  0.29601088430E+03  0.26293750032E+03 0.  0.
         25    1    3    3    0    0  0.21823075270E+02 -0.11214832762E+03 -0.49020176681E+02  0.17636320428E+03  0.12509000000E+03 0.  0.
         25    1    4    4    0    0 -0.50306400279E+02  0.49432213889E+02 -0.43536979478E+02  0.15005750352E+03  0.12509000000E+03 0.  0.
         25    1    4    4    0    0  0.28483325009E+02  0.62716113729E+02 -0.30170690038E+02  0.14595338078E+03  0.12509000000E+03 0.  0.
<mgrwt>
<rscale>  2 0.45615256E+03</rscale>
<asrwt>0</asrwt>
<pdfrwt beam="1">  1       21 0.25709283E-01 0.45615256E+03</pdfrwt>
<pdfrwt beam="2">  1       21 0.43757495E-01 0.45615256E+03</pdfrwt>
<totfact> 0.66648054E+04</totfact>
</mgrwt>
</event>
<event>
 7    0  0.4709932E-002  0.4607467E+03  0.7546771E-02  0.1024565E+00
         21   -1    0    0  502  501  0.00000000000E+00  0.00000000000E+00  0.95642679959E+02  0.95642679959E+02  0.00000000000E+00 0.  1.
         21   -1    0    0  501  502 -0.00000000000E+00 -0.00000000000E+00 -0.55489755208E+03  0.55489755208E+03  0.00000000000E+00 0.  1.
      99926    2    1    2    0    0 -0.14210854715E-13  0.00000000000E+00 -0.45925487212E+03  0.65054023204E+03  0.46074673730E+03 0.  0.
      99925    2    3    3    0    0  0.10100513079E+03  0.61905942797E+02 -0.29149677759E+03  0.41007262803E+03  0.26297301518E+03 0.  0.
         25    1    4    4    0    0  0.29367075966E+02  0.49545273614E+02 -0.18400616066E+03  0.22983240535E+03  0.12509000000E+03 0.  0.
         25    1    4    4    0    0  0.71638054824E+02  0.12360669183E+02 -0.10749061693E+03  0.18024022267E+03  0.12509000000E+03 0.  0.
         25    1    3    3    0    0 -0.10100513079E+03 -0.61905942797E+02 -0.16775809452E+03  0.24046760401E+03  0.12509000000E+03 0.  0.
<mgrwt>
<rscale>  2 0.46074674E+03</rscale>
<asrwt>0</asrwt>
<pdfrwt beam="1">  1       21 0.14065100E-01 0.46074674E+03</pdfrwt>
<pdfrwt beam="2">  1       21 0.81602579E-01 0.46074674E+03</pdfrwt>
<totfact> 0.53216346E+04</totfact>
</mgrwt>
</event>
<event>
 7    0  0.4709932E-002  0.4550670E+03  0.7546771E-02  0.1026222E+00
         21   -1    0    0  502  501  0.00000000000E+00  0.00000000000E+00  0.39460150826E+03  0.39460150826E+03  0.00000000000E+00 0. -1.
         21   -1    0    0  501  502 -0.00000000000E+00 -0.00000000000E+00 -0.13119945739E+03  0.13119945739E+03  0.00000000000E+00 0. -1.
      99926    2    1    2    0    0 -0.17763568394E-14  0.00000000000E+00  0.26340205087E+03  0.52580096565E+03  0.45506704459E+03 0.  0.
      99925    2    3    3    0    0 -0.11116768416E+02 -0.98805688845E+01  0.36084202453E+02  0.26591229624E+03  0.26303245321E+03 0.  0.
         25    1    4    4    0    0  0.23204039888E+02 -0.23118149018E+02 -0.44093806666E+01  0.12938248343E+03  0.12509000000E+03 0.  0.
         25    1    3    3    0    0  0.11116768416E+02  0.98805688845E+01  0.22731784841E+03  0.25988866941E+03  0.12509000000E+03 0.  0.
         25    1    4    4    0    0 -0.34320808304E+02  0.13237580133E+02  0.40493583119E+02  0.13652981280E+03  0.12509000000E+03 0.  0.
<mgrwt>
<rscale>  2 0.45506704E+03</rscale>
<asrwt>0</asrwt>
<pdfrwt beam="1">  1       21 0.58029633E-01 0.45506704E+03</pdfrwt>
<pdfrwt beam="2">  1       21 0.19294038E-01 0.45506704E+03</pdfrwt>
<totfact> 0.63457939E+04</totfact>
</mgrwt>
</event>
<event>
 7    0  0.4709932E-002  0.4604664E+03  0.7546771E-02  0.1024646E+00
         21   -1    0    0  502  501  0.00000000000E+00  0.00000000000E+00  0.52801946569E+03  0.52801946569E+03  0.00000000000E+00 0.  1.
         21   -1    0    0  501  502 -0.00000000000E+00 -0.00000000000E+00 -0.10038897539E+03  0.10038897539E+03  0.00000000000E+00 0.  1.
      99926    2    1    2    0    0  0.00000000000E+00  0.00000000000E+00  0.42763049030E+03  0.62840844108E+03  0.46046642938E+03 0.  0.
      99925    2    3    3    0    0  0.22287058732E+02 -0.11401298643E+03  0.23764387239E+03  0.37299094531E+03  0.26296760473E+03 0.  0.
         25    1    4    4    0    0  0.10970917180E+02 -0.14567037035E+02  0.11929154886E+03  0.17381179857E+03  0.12509000000E+03 0.  0.
         25    1    3    3    0    0 -0.22287058732E+02  0.11401298643E+03  0.18998661791E+03  0.25541749578E+03  0.12509000000E+03 0.  0.
         25    1    4    4    0    0  0.11316141551E+02 -0.99445949399E+02  0.11835232352E+03  0.19917914674E+03  0.12509000000E+03 0.  0.
<mgrwt>
<rscale>  2 0.46046643E+03</rscale>
<asrwt>0</asrwt>
<pdfrwt beam="1">  1       21 0.77649920E-01 0.46046643E+03</pdfrwt>
<pdfrwt beam="2">  1       21 0.14763085E-01 0.46046643E+03</pdfrwt>
<totfact> 0.54569441E+04</totfact>
</mgrwt>
</event>
<event>
 7    0  0.4709932E-002  0.4228855E+03  0.7546771E-02  0.1036131E+00
         21   -1    0    0  502  501  0.00000000000E+00  0.00000000000E+00  0.92024979887E+03  0.92024979887E+03  0.00000000000E+00 0.  1.
         21   -1    0    0  501  502 -0.00000000000E+00 -0.00000000000E+00 -0.48582491450E+02  0.48582491450E+02  0.00000000000E+00 0.  1.
      99926    2    1    2    0    0  0.00000000000E+00  0.00000000000E+00  0.87166730742E+03  0.96883229032E+03  0.42288545960E+03 0.  0.
      99925    2    3    3    0    0  0.36879275133E+02  0.70105097115E+02  0.56880902647E+03  0.63171887911E+03  0.26315438065E+03 0.  0.
         25    1    4    4    0    0  0.54832895542E+02  0.26820743232E+02  0.32866972317E+03  0.35692757491E+03  0.12509000000E+03 0.  0.
         25    1    4    4    0    0 -0.17953620409E+02  0.43284353883E+02  0.24013930330E+03  0.27479130420E+03  0.12509000000E+03 0.  0.
         25    1    3    3    0    0 -0.36879275133E+02 -0.70105097115E+02  0.30285828095E+03  0.33711341121E+03  0.12509000000E+03 0.  0.
<mgrwt>
<rscale>  2 0.42288546E+03</rscale>
<asrwt>0</asrwt>
<pdfrwt beam="1">  1       21 0.13533084E+00 0.42288546E+03</pdfrwt>
<pdfrwt beam="2">  1       21 0.71444846E-02 0.42288546E+03</pdfrwt>
<totfact> 0.52345251E+04</totfact>
</mgrwt>
</event>
<event>
 7    0  0.4709932E-002  0.4548985E+03  0.7546771E-02  0.1026271E+00
         21   -1    0    0  502  501  0.00000000000E+00  0.00000000000E+00  0.14952495232E+03  0.14952495232E+03  0.00000000000E+00 0. -1.
         21   -1    0    0  501  502 -0.00000000000E+00 -0.00000000000E+00 -0.34598343416E+03  0.34598343416E+03  0.00000000000E+00 0. -1.
      99926    2    1    2    0    0  0.00000000000E+00  0.00000000000E+00 -0.19645848185E+03  0.49550838648E+03  0.45489847876E+03 0.  0.
      99925    2    3    3    0    0  0.63746311666E+01 -0.10525368313E+03 -0.79317252131E+02  0.29429071942E+03  0.26305289833E+03 0.  0.
         25    1    3    3    0    0 -0.63746311666E+01  0.10525368313E+03 -0.11714122971E+03  0.20121766705E+03  0.12509000000E+03 0.  0.
         25    1    4    4    0    0 -0.27942273074E+02 -0.24207104948E+02 -0.37840419562E+02  0.13581664113E+03  0.12509000000E+03 0.  0.
         25    1    4    4    0    0  0.34316904240E+02 -0.81046578185E+02 -0.41476832569E+02  0.15847407830E+03  0.12509000000E+03 0.  0.
<mgrwt>
<rscale>  2 0.45489848E+03</rscale>
<asrwt>0</asrwt>
<pdfrwt beam="1">  1       21 0.21988964E-01 0.45489848E+03</pdfrwt>
<pdfrwt beam="2">  1       21 0.50879917E-01 0.45489848E+03</pdfrwt>
<totfact> 0.65640257E+04</totfact>
</mgrwt>
</event>
<event>
 7    0  0.4709932E-002  0.4504226E+03  0.7546771E-02  0.1027596E+00
         21   -1    0    0  502  501  0.00000000000E+00  0.00000000000E+00  0.48517929367E+03  0.48517929367E+03  0.00000000000E+00 0. -1.
         21   -1    0    0  501  502 -0.00000000000E+00 -0.00000000000E+00 -0.10453892156E+03  0.10453892156E+03  0.00000000000E+00 0. -1.
      99926    2    1    2    0    0  0.00000000000E+00  0.00000000000E+00  0.38064037211E+03  0.58971821523E+03  0.45042255771E+03 0.  0.
      99925    2    3    3    0    0  0.61494675148E+02  0.60048819603E+02  0.15326156548E+03  0.31633920065E+03  0.26304738472E+03 0.  0.
         25    1    4    4    0    0  0.16786914487E+02  0.41628172026E+02  0.11786665072E+03  0.17763659718E+03  0.12509000000E+03 0.  0.
         25    1    4    4    0    0  0.44707760661E+02  0.18420647577E+02  0.35394914761E+02  0.13870260348E+03  0.12509000000E+03 0.  0.
         25    1    3    3    0    0 -0.61494675148E+02 -0.60048819603E+02  0.22737880663E+03  0.27337901458E+03  0.12509000000E+03 0.  0.
<mgrwt>
<rscale>  2 0.45042256E+03</rscale>
<asrwt>0</asrwt>
<pdfrwt beam="1">  1       21 0.71349895E-01 0.45042256E+03</pdfrwt>
<pdfrwt beam="2">  1       21 0.15373371E-01 0.45042256E+03</pdfrwt>
<totfact> 0.61510933E+04</totfact>
</mgrwt>
</event>
<event>
 7    0  0.4709932E-002  0.4567718E+03  0.7546771E-02  0.1025722E+00
         21   -1    0    0  502  501  0.00000000000E+00  0.00000000000E+00  0.64553989530E+02  0.64553989530E+02  0.00000000000E+00 0. -1.
         21   -1    0    0  501  502 -0.00000000000E+00 -0.00000000000E+00 -0.80800784438E+03  0.80800784438E+03  0.00000000000E+00 0. -1.
      99926    2    1    2    0    0  0.00000000000E+00  0.00000000000E+00 -0.74345385485E+03  0.87256183391E+03  0.45677184644E+03 0.  0.
      99925    2    3    3    0    0  0.21347589334E+02 -0.10735944272E+03 -0.53373893451E+03  0.60496208536E+03  0.26290702729E+03 0.  0.
         25    1    4    4    0    0  0.31351921911E+02 -0.80382476077E+02 -0.23545587908E+03  0.28023430297E+03  0.12509000000E+03 0.  0.
         25    1    4    4    0    0 -0.10004332577E+02 -0.26976966639E+02 -0.29828305543E+03  0.32472778239E+03  0.12509000000E+03 0.  0.
         25    1    3    3    0    0 -0.21347589334E+02  0.10735944272E+03 -0.20971492034E+03  0.26759974855E+03  0.12509000000E+03 0.  0.
<mgrwt>
<rscale>  2 0.45677185E+03</rscale>
<asrwt>0</asrwt>
<pdfrwt beam="1">  1       21 0.94932339E-02 0.45677185E+03</pdfrwt>
<pdfrwt beam="2">  1       21 0.11882468E+00 0.45677185E+03</pdfrwt>
<totfact> 0.43829830E+04</totfact>
</mgrwt>
</event>
<event>
 6    0  0.4709932E-002  0.4444013E+03  0.7546771E-02  0.1029405E+00
         21   -1    0    0  502  501  0.00000000000E+00  0.00000000000E+00  0.25155864255E+03  0.25155864255E+03  0.00000000000E+00 0.  1.
         21   -1    0    0  501  502 -0.00000000000E+00 -0.00000000000E+00 -0.19626882827E+03  0.19626882827E+03  0.00000000000E+00 0.  1.
      99926    2    1    2    0    0  0.00000000000E+00  0.00000000000E+00  0.55289814281E+02  0.44782747083E+03  0.44440126020E+03 0.  0.
         25    1    3    3    0    0 -0.61132233502E+01  0.10318870248E+03  0.38245611071E+02  0.16671986890E+03  0.12509000000E+03 0.  0.
         25    1    3    3    0    0  0.40278260546E+01 -0.80391065032E+02  0.34636413121E+02  0.15272896233E+03  0.12509000000E+03 0.  0.
         25    1    3    3    0    0  0.20853972956E+01 -0.22797637453E+02 -0.17592209911E+02  0.12837863960E+03  0.12509000000E+03 0.  0.
<mgrwt>
<rscale>  2 0.44440126E+03</rscale>
<asrwt>0</asrwt>
<pdfrwt beam="1">  1       21 0.36993918E-01 0.44440126E+03</pdfrwt>
<pdfrwt beam="2">  1       21 0.28863063E-01 0.44440126E+03</pdfrwt>
<totfact> 0.75238000E+04</totfact>
</mgrwt>
</event>
<event>
 7    0  0.4709932E-002  0.4534256E+03  0.7546771E-02  0.1026705E+00
         21   -1    0    0  502  501  0.00000000000E+00  0.00000000000E+00  0.48162334493E+02  0.48162334493E+02  0.00000000000E+00 0.  1.
         21   -1    0    0  501  502 -0.00000000000E+00 -0.00000000000E+00 -0.10671968984E+04  0.10671968984E+04  0.00000000000E+00 0.  1.
      99926    2    1    2    0    0  0.00000000000E+00  0.14210854715E-13 -0.10190345639E+04  0.11153592328E+04  0.45342560134E+03 0.  0.
      99925    2    3    3    0    0  0.40788039612E+02  0.10204813596E+03 -0.69135193311E+03  0.74779848844E+03  0.26297832169E+03 0.  0.
         25    1    3    3    0    0 -0.40788039612E+02 -0.10204813596E+03 -0.32768263076E+03  0.36756074441E+03  0.12509000000E+03 0.  0.
         25    1    4    4    0    0  0.37734547979E+02  0.24804920791E+02 -0.39841251691E+03  0.42002288264E+03  0.12509000000E+03 0.  0.
         25    1    4    4    0    0  0.30534916325E+01  0.77243215170E+02 -0.29293941619E+03  0.32777560580E+03  0.12509000000E+03 0.  0.
<mgrwt>
<rscale>  2 0.45342560E+03</rscale>
<asrwt>0</asrwt>
<pdfrwt beam="1">  1       21 0.70826960E-02 0.45342560E+03</pdfrwt>
<pdfrwt beam="2">  1       21 0.15694073E+00 0.45342560E+03</pdfrwt>
<totfact> 0.35392627E+04</totfact>
</mgrwt>
</event>
<event>
 7    0  0.4709932E-002  0.4449218E+03  0.7546771E-02  0.1029247E+00
         21   -1    0    0  502  501  0.00000000000E+00  0.00000000000E+00  0.35445162397E+03  0.35445162397E+03  0.00000000000E+00 0. -1.
         21   -1    0    0  501  502 -0.00000000000E+00 -0.00000000000E+00 -0.13962091751E+03  0.13962091751E+03  0.00000000000E+00 0. -1.
      99926    2    1    2    0    0  0.35527136788E-14  0.00000000000E+00  0.21483070646E+03  0.49407254147E+03  0.44492184010E+03 0.  0.
      99925    2    3    3    0    0  0.28830529012E+02 -0.90593293413E+02  0.91485446089E+02  0.29432293429E+03  0.26309325074E+03 0.  0.
         25    1    4    4    0    0  0.56584356196E+01 -0.30844810193E+01  0.37516226423E+02  0.13075361281E+03  0.12509000000E+03 0.  0.
         25    1    3    3    0    0 -0.28830529012E+02  0.90593293413E+02  0.12334526037E+03  0.19974960719E+03  0.12509000000E+03 0.  0.
         25    1    4    4    0    0  0.23172093393E+02 -0.87508812394E+02  0.53969219666E+02  0.16356932148E+03  0.12509000000E+03 0.  0.
<mgrwt>
<rscale>  2 0.44492184E+03</rscale>
<asrwt>0</asrwt>
<pdfrwt beam="1">  1       21 0.52125239E-01 0.44492184E+03</pdfrwt>
<pdfrwt beam="2">  1       21 0.20532488E-01 0.44492184E+03</pdfrwt>
<totfact> 0.71218372E+04</totfact>
</mgrwt>
</event>
<event>
 7    0  0.4709932E-002  0.4547129E+03  0.7546771E-02  0.1026326E+00
         21   -1    0    0  502  501  0.00000000000E+00  0.00000000000E+00  0.11688057966E+03  0.11688057966E+03  0.00000000000E+00 0. -1.
         21   -1    0    0  501  502 -0.00000000000E+00 -0.00000000000E+00 -0.44225445825E+03  0.44225445825E+03  0.00000000000E+00 0. -1.
      99926    2    1    2    0    0  0.00000000000E+00  0.35527136788E-14 -0.32537387858E+03  0.55913503791E+03  0.45471290915E+03 0.  0.
      99925    2    3    3    0    0  0.14055243533E+02 -0.11403251760E+02 -0.34182913164E+03  0.43167576020E+03  0.26300042334E+03 0.  0.
         25    1    4    4    0    0  0.11048287247E+02  0.34671859451E+02 -0.17053295054E+03  0.21460008809E+03  0.12509000000E+03 0.  0.
         25    1    3    3    0    0 -0.14055243533E+02  0.11403251760E+02  0.16455253060E+02  0.12745927771E+03  0.12509000000E+03 0.  0.
         25    1    4    4    0    0  0.30069562864E+01 -0.46075111211E+02 -0.17129618110E+03  0.21707567210E+03  0.12509000000E+03 0.  0.
<mgrwt>
<rscale>  2 0.45471291E+03</rscale>
<asrwt>0</asrwt>
<pdfrwt beam="1">  1       21 0.17188321E-01 0.45471291E+03</pdfrwt>
<pdfrwt beam="2">  1       21 0.65037420E-01 0.45471291E+03</pdfrwt>
<totfact> 0.61406196E+04</totfact>
</mgrwt>
</event>
<event>
 7    0  0.4709932E-002  0.4546190E+03  0.7546771E-02  0.1026354E+00
         21   -1    0    0  502  501  0.00000000000E+00  0.00000000000E+00  0.71189113447E+03  0.71189113447E+03  0.00000000000E+00 0. -1.
         21   -1    0    0  501  502 -0.00000000000E+00 -0.00000000000E+00 -0.72580758244E+02  0.72580758244E+02  0.00000000000E+00 0. -1.
      99926    2    1    2    0    0  0.00000000000E+00 -0.26645352591E-14  0.63931037622E+03  0.78447189271E+03  0.45461895397E+03 0.  0.
      99925    2    3    3    0    0  0.18114123372E+02  0.40785625709E+01  0.21035335293E+03  0.33726233102E+03  0.26296880175E+03 0.  0.
         25    1    4    4    0    0 -0.25458908249E+02 -0.18601839726E+02  0.11009166419E+03  0.16959324006E+03  0.12509000000E+03 0.  0.
         25    1    4    4    0    0  0.43573031621E+02  0.22680402297E+02  0.10026168874E+03  0.16766909095E+03  0.12509000000E+03 0.  0.
         25    1    3    3    0    0 -0.18114123372E+02 -0.40785625709E+01  0.42895702329E+03  0.44720956169E+03  0.12509000000E+03 0.  0.
<mgrwt>
<rscale>  2 0.45461895E+03</rscale>
<asrwt>0</asrwt>
<pdfrwt beam="1">  1       21 0.10468987E+00 0.45461895E+03</pdfrwt>
<pdfrwt beam="2">  1       21 0.10673641E-01 0.45461895E+03</pdfrwt>
<totfact> 0.48670492E+04</totfact>
</mgrwt>
</event>
<event>
 7    0  0.4709932E-002  0.4474948E+03  0.7546771E-02  0.1028472E+00
         21   -1    0    0  502  501  0.00000000000E+00  0.00000000000E+00  0.25930403409E+03  0.25930403409E+03  0.00000000000E+00 0.  1.
         21   -1    0    0  501  502 -0.00000000000E+00 -0.00000000000E+00 -0.19306641361E+03  0.19306641361E+03  0.00000000000E+00 0.  1.
      99926    2    1    2    0    0  0.00000000000E+00 -0.71054273576E-14  0.66237620478E+02  0.45237044770E+03  0.44749480397E+03 0.  0.
      99925    2    3    3    0    0  0.66236291809E+02  0.63927045342E+02  0.95146335195E+02  0.29439217272E+03  0.26294488544E+03 0.  0.
         25    1    3    3    0    0 -0.66236291809E+02 -0.63927045342E+02 -0.28908714717E+02  0.15797827498E+03  0.12509000000E+03 0.  0.
         25    1    4    4    0    0  0.68503470242E+02  0.48943270394E+02  0.35116551462E+02  0.15481876320E+03  0.12509000000E+03 0.  0.
         25    1    4    4    0    0 -0.22671784332E+01  0.14983774948E+02  0.60029783732E+02  0.13957340952E+03  0.12509000000E+03 0.  0.
<mgrwt>
<rscale>  2 0.44749480E+03</rscale>
<asrwt>0</asrwt>
<pdfrwt beam="1">  1       21 0.38132946E-01 0.44749480E+03</pdfrwt>
<pdfrwt beam="2">  1       21 0.28392120E-01 0.44749480E+03</pdfrwt>
<totfact> 0.73013265E+04</totfact>
</mgrwt>
</event>
<event>
 7    0  0.4709932E-002  0.4387395E+03  0.7546771E-02  0.1031134E+00
         21   -1    0    0  502  501  0.00000000000E+00  0.00000000000E+00  0.69886464294E+03  0.69886464294E+03  0.00000000000E+00 0. -1.
         21   -1    0    0  501  502 -0.00000000000E+00 -0.00000000000E+00 -0.68858937085E+02  0.68858937085E+02  0.00000000000E+00 0. -1.
      99926    2    1    2    0    0  0.00000000000E+00  0.00000000000E+00  0.63000570585E+03  0.76772358002E+03  0.43873945106E+03 0.  0.
      99925    2    3    3    0    0 -0.84030685752E+02  0.30303742028E+02  0.33559761474E+03  0.43560446714E+03  0.26295630786E+03 0.  0.
         25    1    4    4    0    0 -0.26775826059E+02  0.43062765417E+02  0.12653125054E+03  0.18501084317E+03  0.12509000000E+03 0.  0.
         25    1    3    3    0    0  0.84030685752E+02 -0.30303742028E+02  0.29440809111E+03  0.33211911288E+03  0.12509000000E+03 0.  0.
         25    1    4    4    0    0 -0.57254859692E+02 -0.12759023389E+02  0.20906636420E+03  0.25059362397E+03  0.12509000000E+03 0.  0.
<mgrwt>
<rscale>  2 0.43873945E+03</rscale>
<asrwt>0</asrwt>
<pdfrwt beam="1">  1       21 0.10277421E+00 0.43873945E+03</pdfrwt>
<pdfrwt beam="2">  1       21 0.10126315E-01 0.43873945E+03</pdfrwt>
<totfact> 0.56204106E+04</totfact>
</mgrwt>
</event>
<event>
 7    0  0.4709932E-002  0.4556398E+03  0.7546771E-02  0.1026053E+00
         21   -1    0    0  502  501  0.00000000000E+00  0.00000000000E+00  0.14199726004E+03  0.14199726004E+03  0.00000000000E+00 0. -1.
         21   -1    0    0  501  502 -0.00000000000E+00 -0.00000000000E+00 -0.36551343544E+03  0.36551343544E+03  0.00000000000E+00 0. -1.
      99926    2    1    2    0    0  0.71054273576E-14 -0.14210854715E-13 -0.22351617540E+03  0.50751069548E+03  0.45563979782E+03 0.  0.
      99925    2    3    3    0    0 -0.54716986216E+02  0.66866645839E+02 -0.58005877279E+02  0.28277470862E+03  0.26292918653E+03 0.  0.
         25    1    4    4    0    0 -0.26169392549E+02  0.30785833833E+01  0.93328040567E+00  0.12783854620E+03  0.12509000000E+03 0.  0.
         25    1    4    4    0    0 -0.28547593667E+02  0.63788062456E+02 -0.58939157685E+02  0.15493616242E+03  0.12509000000E+03 0.  0.
         25    1    3    3    0    0  0.54716986216E+02 -0.66866645839E+02 -0.16551029812E+03  0.22473598686E+03  0.12509000000E+03 0.  0.
<mgrwt>
<rscale>  2 0.45563980E+03</rscale>
<asrwt>0</asrwt>
<pdfrwt beam="1">  1       21 0.20881950E-01 0.45563980E+03</pdfrwt>
<pdfrwt beam="2">  1       21 0.53751975E-01 0.45563980E+03</pdfrwt>
<totfact> 0.64418429E+04</totfact>
</mgrwt>
</event>
<event>
 7    0  0.4709932E-002  0.4546862E+03  0.7546771E-02  0.1026334E+00
         21   -1    0    0  502  501  0.00000000000E+00  0.00000000000E+00  0.15164815109E+03  0.15164815109E+03  0.00000000000E+00 0.  1.
         21   -1    0    0  501  502 -0.00000000000E+00 -0.00000000000E+00 -0.34082110801E+03  0.34082110801E+03  0.00000000000E+00 0.  1.
      99926    2    1    2    0    0 -0.14210854715E-13  0.71054273576E-14 -0.18917295693E+03  0.49246925910E+03  0.45468622536E+03 0.  0.
      99925    2    3    3    0    0 -0.65613551482E+02  0.48346809323E+02 -0.20356686253E+03  0.34247844362E+03  0.26307691787E+03 0.  0.
         25    1    4    4    0    0 -0.46754511099E+02  0.18864001777E+02 -0.56397976341E+02  0.14618507005E+03  0.12509000000E+03 0.  0.
         25    1    4    4    0    0 -0.18859040382E+02  0.29482807546E+02 -0.14716888619E+03  0.19629337357E+03  0.12509000000E+03 0.  0.
         25    1    3    3    0    0  0.65613551482E+02 -0.48346809323E+02  0.14393905603E+02  0.14999081548E+03  0.12509000000E+03 0.  0.
<mgrwt>
<rscale>  2 0.45468623E+03</rscale>
<asrwt>0</asrwt>
<pdfrwt beam="1">  1       21 0.22301199E-01 0.45468623E+03</pdfrwt>
<pdfrwt beam="2">  1       21 0.50120750E-01 0.45468623E+03</pdfrwt>
<totfact> 0.65967186E+04</totfact>
</mgrwt>
</event>
<event>
 7    0  0.4709932E-002  0.4302072E+03  0.7546771E-02  0.1033795E+00
         21   -1    0    0  502  501  0.00000000000E+00  0.00000000000E+00  0.54703719485E+02  0.54703719485E+02  0.00000000000E+00 0. -1.
         21   -1    0    0  501  502 -0.00000000000E+00 -0.00000000000E+00 -0.84582100025E+03  0.84582100025E+03  0.00000000000E+00 0. -1.
      99926    2    1    2    0    0 -0.35527136788E-14 -0.13322676296E-14 -0.79111728076E+03  0.90052471974E+03  0.43020718140E+03 0.  0.
      99925    2    3    3    0    0  0.20771974289E+02  0.25089255235E+01 -0.68864445069E+03  0.73747270771E+03  0.26305331308E+03 0.  0.
         25    1    4    4    0    0 -0.23100642948E+01 -0.35545422272E+02 -0.30795286725E+03  0.33429222244E+03  0.12509000000E+03 0.  0.
         25    1    4    4    0    0  0.23082038584E+02  0.38054347795E+02 -0.38069158344E+03  0.40318048526E+03  0.12509000000E+03 0.  0.
         25    1    3    3    0    0 -0.20771974289E+02 -0.25089255235E+01 -0.10247283007E+03  0.16305201203E+03  0.12509000000E+03 0.  0.
<mgrwt>
<rscale>  2 0.43020718E+03</rscale>
<asrwt>0</asrwt>
<pdfrwt beam="1">  1       21 0.80446654E-02 0.43020718E+03</pdfrwt>
<pdfrwt beam="2">  1       21 0.12438543E+00 0.43020718E+03</pdfrwt>
<totfact> 0.52719289E+04</totfact>
</mgrwt>
</event>
<event>
 7    0  0.4709932E-002  0.4665111E+03  0.7546771E-02  0.1022910E+00
         21   -1    0    0  502  501  0.00000000000E+00  0.00000000000E+00  0.61154141482E+02  0.61154141482E+02  0.00000000000E+00 0.  1.
         21   -1    0    0  501  502 -0.00000000000E+00 -0.00000000000E+00 -0.88968867175E+03  0.88968867175E+03  0.00000000000E+00 0.  1.
      99926    2    1    2    0    0  0.00000000000E+00 -0.48849813084E-14 -0.82853453026E+03  0.95084281323E+03  0.46651107986E+03 0.  0.
      99925    2    3    3    0    0  0.61596541055E+02  0.19343058485E+01 -0.73403377008E+03  0.78239170108E+03  0.26369171942E+03 0.  0.
         25    1    3    3    0    0 -0.61596541055E+02 -0.19343058485E+01 -0.94500760186E+02  0.16845111215E+03  0.12509000000E+03 0.  0.
         25    1    4    4    0    0  0.27603021338E+02 -0.31996226588E+02 -0.29131914177E+03  0.31984376774E+03  0.12509000000E+03 0.  0.
         25    1    4    4    0    0  0.33993519717E+02  0.33930532436E+02 -0.44271462831E+03  0.46254793334E+03  0.12509000000E+03 0.  0.
<mgrwt>
<rscale>  2 0.46651108E+03</rscale>
<asrwt>0</asrwt>
<pdfrwt beam="1">  1       21 0.89932571E-02 0.46651108E+03</pdfrwt>
<pdfrwt beam="2">  1       21 0.13083656E+00 0.46651108E+03</pdfrwt>
<totfact> 0.37605309E+04</totfact>
</mgrwt>
</event>
<event>
 7    0  0.4709932E-002  0.4562972E+03  0.7546771E-02  0.1025861E+00
         21   -1    0    0  502  501  0.00000000000E+00  0.00000000000E+00  0.12840895590E+03  0.12840895590E+03  0.00000000000E+00 0. -1.
         21   -1    0    0  501  502 -0.00000000000E+00 -0.00000000000E+00 -0.40535949684E+03  0.40535949684E+03  0.00000000000E+00 0. -1.
      99926    2    1    2    0    0 -0.17763568394E-14  0.00000000000E+00 -0.27695054093E+03  0.53376845274E+03  0.45629722661E+03 0.  0.
      99925    2    3    3    0    0 -0.26393279327E+01  0.19618600313E+02 -0.30607805660E+03  0.40381547740E+03  0.26266196438E+03 0.  0.
         25    1    3    3    0    0  0.26393279327E+01 -0.19618600313E+02  0.29127515662E+02  0.12995297534E+03  0.12509000000E+03 0.  0.
         25    1    4    4    0    0 -0.26781966615E+02  0.37816614779E+02 -0.13559173989E+03  0.19021040485E+03  0.12509000000E+03 0.  0.
         25    1    4    4    0    0  0.24142638683E+02 -0.18198014467E+02 -0.17048631671E+03  0.21360507255E+03  0.12509000000E+03 0.  0.
<mgrwt>
<rscale>  2 0.45629723E+03</rscale>
<asrwt>0</asrwt>
<pdfrwt beam="1">  1       21 0.18883670E-01 0.45629723E+03</pdfrwt>
<pdfrwt beam="2">  1       21 0.59611691E-01 0.45629723E+03</pdfrwt>
<totfact> 0.62309032E+04</totfact>
</mgrwt>
</event>
<event>
 7    0  0.4709932E-002  0.4456666E+03  0.7546771E-02  0.1029022E+00
         21   -1    0    0  502  501  0.00000000000E+00  0.00000000000E+00  0.70796952535E+02  0.70796952535E+02  0.00000000000E+00 0. -1.
         21   -1    0    0  501  502 -0.00000000000E+00 -0.00000000000E+00 -0.70136757495E+03  0.70136757495E+03  0.00000000000E+00 0. -1.
      99926    2    1    2    0    0  0.00000000000E+00  0.00000000000E+00 -0.63057062241E+03  0.77216452748E+03  0.44566663287E+03 0.  0.
      99925    2    3    3    0    0  0.51304919688E+02  0.30038270648E+02 -0.54797977721E+03  0.61090930028E+03  0.26342711412E+03 0.  0.
         25    1    4    4    0    0  0.22241481426E+02  0.65322281324E+01 -0.36180577662E+03  0.38352090112E+03  0.12509000000E+03 0.  0.
         25    1    3    3    0    0 -0.51304919688E+02 -0.30038270648E+02 -0.82590845204E+02  0.16125522720E+03  0.12509000000E+03 0.  0.
         25    1    4    4    0    0  0.29063438262E+02  0.23506042515E+02 -0.18617400058E+03  0.22738839916E+03  0.12509000000E+03 0.  0.
<mgrwt>
<rscale>  2 0.44566663E+03</rscale>
<asrwt>0</asrwt>
<pdfrwt beam="1">  1       21 0.10411317E-01 0.44566663E+03</pdfrwt>
<pdfrwt beam="2">  1       21 0.10314229E+00 0.44566663E+03</pdfrwt>
<totfact> 0.52912156E+04</totfact>
</mgrwt>
</event>
<event>
 7    0  0.4709932E-002  0.4420731E+03  0.7546771E-02  0.1030113E+00
         21   -1    0    0  502  501  0.00000000000E+00  0.00000000000E+00  0.83717580320E+03  0.83717580320E+03  0.00000000000E+00 0. -1.
         21   -1    0    0  501  502 -0.00000000000E+00 -0.00000000000E+00 -0.58359485905E+02  0.58359485905E+02  0.00000000000E+00 0. -1.
      99926    2    1    2    0    0 -0.71054273576E-14 -0.71054273576E-14  0.77881631730E+03  0.89553528911E+03  0.44207306856E+03 0.  0.
      99925    2    3    3    0    0  0.34869107347E+02 -0.33989231038E+02  0.67427573009E+03  0.72539603747E+03  0.26302191642E+03 0.  0.
         25    1    4    4    0    0  0.41883201638E+02 -0.44732782359E+02  0.40298431224E+03  0.42637904312E+03  0.12509000000E+03 0.  0.
         25    1    4    4    0    0 -0.70140942911E+01  0.10743551321E+02  0.27129141785E+03  0.29901699435E+03  0.12509000000E+03 0.  0.
         25    1    3    3    0    0 -0.34869107347E+02  0.33989231038E+02  0.10454058721E+03  0.17013925164E+03  0.12509000000E+03 0.  0.
<mgrwt>
<rscale>  2 0.44207307E+03</rscale>
<asrwt>0</asrwt>
<pdfrwt beam="1">  1       21 0.12311408E+00 0.44207307E+03</pdfrwt>
<pdfrwt beam="2">  1       21 0.85822778E-02 0.44207307E+03</pdfrwt>
<totfact> 0.48113829E+04</totfact>
</mgrwt>
</event>
<event>
 7    0  0.4709932E-002  0.4607126E+03  0.7546771E-02  0.1024575E+00
         21   -1    0    0  502  501  0.00000000000E+00  0.00000000000E+00  0.18637680738E+03  0.18637680738E+03  0.00000000000E+00 0.  1.
         21   -1    0    0  501  502 -0.00000000000E+00 -0.00000000000E+00 -0.28471365410E+03  0.28471365410E+03  0.00000000000E+00 0.  1.
      99926    2    1    2    0    0 -0.24424906542E-14  0.00000000000E+00 -0.98336846726E+02  0.47109046148E+03  0.46071258663E+03 0.  0.
      99925    2    3    3    0    0 -0.16505981882E+01  0.73105059295E+02 -0.15674300342E+03  0.31486670718E+03  0.26310758256E+03 0.  0.
         25    1    4    4    0    0 -0.26016728738E+02  0.69465897880E+02 -0.78190428267E+02  0.16511702612E+03  0.12509000000E+03 0.  0.
         25    1    3    3    0    0  0.16505981882E+01 -0.73105059295E+02  0.58406156695E+02  0.15622375430E+03  0.12509000000E+03 0.  0.
         25    1    4    4    0    0  0.24366130550E+02  0.36391614157E+01 -0.78552575154E+02  0.14974968106E+03  0.12509000000E+03 0.  0.
<mgrwt>
<rscale>  2 0.46071259E+03</rscale>
<asrwt>0</asrwt>
<pdfrwt beam="1">  1       21 0.27408354E-01 0.46071259E+03</pdfrwt>
<pdfrwt beam="2">  1       21 0.41869655E-01 0.46071259E+03</pdfrwt>
<totfact> 0.64386774E+04</totfact>
</mgrwt>
</event>
<event>
 7    0  0.4709932E-002  0.4780249E+03  0.7546771E-02  0.1019679E+00
         21   -1    0    0  502  501  0.00000000000E+00  0.00000000000E+00  0.65672085357E+02  0.65672085357E+02  0.00000000000E+00 0. -1.
         21   -1    0    0  501  502 -0.00000000000E+00 -0.00000000000E+00 -0.86988176898E+03  0.86988176898E+03  0.00000000000E+00 0. -1.
      99926    2    1    2    0    0  0.00000000000E+00  0.00000000000E+00 -0.80420968362E+03  0.93555385434E+03  0.47802489384E+03 0.  0.
      99925    2    3    3    0    0  0.37527761518E+02  0.10619520675E+03 -0.35437663690E+03  0.45525911895E+03  0.26266387225E+03 0.  0.
         25    1    4    4    0    0  0.21643429415E+02  0.89590550775E+02 -0.22844342651E+03  0.27627669471E+03  0.12509000000E+03 0.  0.
         25    1    3    3    0    0 -0.37527761518E+02 -0.10619520675E+03 -0.44983304672E+03  0.48029473539E+03  0.12509000000E+03 0.  0.
         25    1    4    4    0    0  0.15884332103E+02  0.16604655971E+02 -0.12593321040E+03  0.17898242424E+03  0.12509000000E+03 0.  0.
<mgrwt>
<rscale>  2 0.47802489E+03</rscale>
<asrwt>0</asrwt>
<pdfrwt beam="1">  1       21 0.96576601E-02 0.47802489E+03</pdfrwt>
<pdfrwt beam="2">  1       21 0.12792378E+00 0.47802489E+03</pdfrwt>
<totfact> 0.34988417E+04</totfact>
</mgrwt>
</event>
<event>
 7    0  0.4709932E-002  0.4549214E+03  0.7546771E-02  0.1026265E+00
         21   -1    0    0  502  501  0.00000000000E+00  0.00000000000E+00  0.16977434553E+03  0.16977434553E+03  0.00000000000E+00 0. -1.
         21   -1    0    0  501  502 -0.00000000000E+00 -0.00000000000E+00 -0.30474791323E+03  0.30474791323E+03  0.00000000000E+00 0. -1.
      99926    2    1    2    0    0  0.00000000000E+00  0.14210854715E-13 -0.13497356770E+03  0.47452225877E+03  0.45492143287E+03 0.  0.
      99925    2    3    3    0    0 -0.69789519640E+02 -0.76978013592E+02 -0.38298999106E+02  0.28534067419E+03  0.26297584564E+03 0.  0.
         25    1    3    3    0    0  0.69789519640E+02  0.76978013592E+02 -0.96674568594E+02  0.18918158457E+03  0.12509000000E+03 0.  0.
         25    1    4    4    0    0 -0.64042075018E+02 -0.10397244802E+02 -0.20852870206E+02  0.14244943091E+03  0.12509000000E+03 0.  0.
         25    1    4    4    0    0 -0.57474446225E+01 -0.66580768790E+02 -0.17446128900E+02  0.14289124328E+03  0.12509000000E+03 0.  0.
<mgrwt>
<rscale>  2 0.45492143E+03</rscale>
<asrwt>0</asrwt>
<pdfrwt beam="1">  1       21 0.24966816E-01 0.45492143E+03</pdfrwt>
<pdfrwt beam="2">  1       21 0.44815870E-01 0.45492143E+03</pdfrwt>
<totfact> 0.67142916E+04</totfact>
</mgrwt>
</event>
<event>
 7    0  0.4709932E-002  0.4561682E+03  0.7546771E-02  0.1025898E+00
         21   -1    0    0  502  501  0.00000000000E+00  0.00000000000E+00  0.66440424435E+02  0.66440424435E+02  0.00000000000E+00 0.  1.
         21   -1    0    0  501  502 -0.00000000000E+00 -0.00000000000E+00 -0.78299269440E+03  0.78299269440E+03  0.00000000000E+00 0.  1.
      99926    2    1    2    0    0 -0.71054273576E-14  0.00000000000E+00 -0.71655226996E+03  0.84943311883E+03  0.45616824504E+03 0.  0.
      99925    2    3    3    0    0 -0.46214608522E+02  0.99918914393E+02 -0.50758490556E+03  0.58216088500E+03  0.26296250716E+03 0.  0.
         25    1    4    4    0    0 -0.51738625188E+02  0.47819604233E+02 -0.31957630000E+03  0.35034285993E+03  0.12509000000E+03 0.  0.
         25    1    4    4    0    0  0.55240166664E+01  0.52099310160E+02 -0.18800860556E+03  0.23181802506E+03  0.12509000000E+03 0.  0.
         25    1    3    3    0    0  0.46214608522E+02 -0.99918914393E+02 -0.20896736440E+03  0.26727223383E+03  0.12509000000E+03 0.  0.
<mgrwt>
<rscale>  2 0.45616825E+03</rscale>
<asrwt>0</asrwt>
<pdfrwt beam="1">  1       21 0.97706511E-02 0.45616825E+03</pdfrwt>
<pdfrwt beam="2">  1       21 0.11514598E+00 0.45616825E+03</pdfrwt>
<totfact> 0.45050464E+04</totfact>
</mgrwt>
</event>
<event>
 7    0  0.4709932E-002  0.5101123E+03  0.7546771E-02  0.1011173E+00
         21   -1    0    0  502  501  0.00000000000E+00  0.00000000000E+00  0.24457393763E+03  0.24457393763E+03  0.00000000000E+00 0.  1.
         21   -1    0    0  501  502 -0.00000000000E+00 -0.00000000000E+00 -0.26598764960E+03  0.26598764960E+03  0.00000000000E+00 0.  1.
      99926    2    1    2    0    0  0.00000000000E+00 -0.28421709430E-13 -0.21413711968E+02  0.51056158723E+03  0.51011232812E+03 0.  0.
      99925    2    3    3    0    0 -0.80921151129E+02  0.12663060557E+03 -0.66022311111E+02  0.31000990266E+03  0.26298983101E+03 0.  0.
         25    1    4    4    0    0 -0.52885578553E+02  0.94683427770E+02 -0.80984709322E+01  0.16575563111E+03  0.12509000000E+03 0.  0.
         25    1    4    4    0    0 -0.28035572576E+02  0.31947177803E+02 -0.57923840179E+02  0.14425427155E+03  0.12509000000E+03 0.  0.
         25    1    3    3    0    0  0.80921151129E+02 -0.12663060557E+03  0.44608599142E+02  0.20055168457E+03  0.12509000000E+03 0.  0.
<mgrwt>
<rscale>  2 0.51011233E+03</rscale>
<asrwt>0</asrwt>
<pdfrwt beam="1">  1       21 0.35966756E-01 0.51011233E+03</pdfrwt>
<pdfrwt beam="2">  1       21 0.39115831E-01 0.51011233E+03</pdfrwt>
<totfact> 0.42605617E+04</totfact>
</mgrwt>
</event>
<event>
 7    0  0.4709932E-002  0.4557216E+03  0.7546771E-02  0.1026029E+00
         21   -1    0    0  502  501  0.00000000000E+00  0.00000000000E+00  0.37682841454E+02  0.37682841454E+02  0.00000000000E+00 0. -1.
         21   -1    0    0  501  502 -0.00000000000E+00 -0.00000000000E+00 -0.13778301297E+04  0.13778301297E+04  0.00000000000E+00 0. -1.
      99926    2    1    2    0    0 -0.71054273576E-14  0.00000000000E+00 -0.13401472882E+04  0.14155129711E+04  0.45572164454E+03 0.  0.
      99925    2    3    3    0    0  0.51258333440E+02 -0.42307401648E+02 -0.55073805635E+03  0.61349565433E+03  0.26200606518E+03 0.  0.
         25    1    4    4    0    0 -0.82148459044E+01 -0.27266853230E+02 -0.30738473227E+03  0.33308234224E+03  0.12509000000E+03 0.  0.
         25    1    3    3    0    0 -0.51258333440E+02  0.42307401648E+02 -0.78940923184E+03  0.80201731677E+03  0.12509000000E+03 0.  0.
         25    1    4    4    0    0  0.59473179344E+02 -0.15040548418E+02 -0.24335332408E+03  0.28041331210E+03  0.12509000000E+03 0.  0.
<mgrwt>
<rscale>  2 0.45572164E+03</rscale>
<asrwt>0</asrwt>
<pdfrwt beam="1">  1       21 0.55415958E-02 0.45572164E+03</pdfrwt>
<pdfrwt beam="2">  1       21 0.20262202E+00 0.45572164E+03</pdfrwt>
<totfact> 0.25776694E+04</totfact>
</mgrwt>
</event>
<event>
 7    0  0.4709932E-002  0.4543073E+03  0.7546771E-02  0.1026445E+00
         21   -1    0    0  502  501  0.00000000000E+00  0.00000000000E+00  0.14349094835E+04  0.14349094835E+04  0.00000000000E+00 0. -1.
         21   -1    0    0  501  502 -0.00000000000E+00 -0.00000000000E+00 -0.35959606798E+02  0.35959606798E+02  0.00000000000E+00 0. -1.
      99926    2    1    2    0    0 -0.14210854715E-13  0.00000000000E+00  0.13989498767E+04  0.14708690903E+04  0.45430730048E+03 0.  0.
      99925    2    3    3    0    0  0.90072824082E+02  0.42157261764E+02  0.71172318422E+03  0.76530663146E+03  0.26316154895E+03 0.  0.
         25    1    3    3    0    0 -0.90072824082E+02 -0.42157261764E+02  0.68722669251E+03  0.70556245887E+03  0.12509000000E+03 0.  0.
         25    1    4    4    0    0  0.82357164845E+02  0.96781061201E+01  0.42461413833E+03  0.45035657308E+03  0.12509000000E+03 0.  0.
         25    1    4    4    0    0  0.77156592370E+01  0.32479155644E+02  0.28710904589E+03  0.31495005839E+03  0.12509000000E+03 0.  0.
<mgrwt>
<rscale>  2 0.45430730E+03</rscale>
<asrwt>0</asrwt>
<pdfrwt beam="1">  1       21 0.21101606E+00 0.45430730E+03</pdfrwt>
<pdfrwt beam="2">  1       21 0.52881784E-02 0.45430730E+03</pdfrwt>
<totfact> 0.24634471E+04</totfact>
</mgrwt>
</event>
<event>
 7    0  0.4709932E-002  0.4579739E+03  0.7546771E-02  0.1025370E+00
         21   -1    0    0  502  501  0.00000000000E+00  0.00000000000E+00  0.55038949396E+02  0.55038949396E+02  0.00000000000E+00 0. -1.
         21   -1    0    0  501  502 -0.00000000000E+00 -0.00000000000E+00 -0.95268935083E+03  0.95268935083E+03  0.00000000000E+00 0. -1.
      99926    2    1    2    0    0  0.00000000000E+00  0.00000000000E+00 -0.89765040143E+03  0.10077283002E+04  0.45797388996E+03 0.  0.
      99925    2    3    3    0    0 -0.43417996200E+02  0.67518854362E+02 -0.74743037581E+03  0.79640512997E+03  0.26299248329E+03 0.  0.
         25    1    4    4    0    0 -0.44575601867E+02  0.68520029566E+02 -0.42918434635E+03  0.45445427711E+03  0.12509000000E+03 0.  0.
         25    1    3    3    0    0  0.43417996200E+02 -0.67518854362E+02 -0.15022002562E+03  0.21132317025E+03  0.12509000000E+03 0.  0.
         25    1    4    4    0    0  0.11576056670E+01 -0.10011752045E+01 -0.31824602946E+03  0.34195085286E+03  0.12509000000E+03 0.  0.
<mgrwt>
<rscale>  2 0.45797389E+03</rscale>
<asrwt>0</asrwt>
<pdfrwt beam="1">  1       21 0.80939638E-02 0.45797389E+03</pdfrwt>
<pdfrwt beam="2">  1       21 0.14010136E+00 0.45797389E+03</pdfrwt>
<totfact> 0.37977870E+04</totfact>
</mgrwt>
</event>
<event>
 7    0  0.4709932E-002  0.4427406E+03  0.7546771E-02  0.1029909E+00
         21   -1    0    0  502  501  0.00000000000E+00  0.00000000000E+00  0.19590370355E+03  0.19590370355E+03  0.00000000000E+00 0.  1.
         21   -1    0    0  501  502 -0.00000000000E+00 -0.00000000000E+00 -0.25014745063E+03  0.25014745063E+03  0.00000000000E+00 0.  1.
      99926    2    1    2    0    0  0.00000000000E+00  0.35527136788E-14 -0.54243747079E+02  0.44605115418E+03  0.44274061034E+03 0.  0.
      99925    2    3    3    0    0 -0.40516147925E+02  0.18002207260E+02 -0.12603659494E+03  0.29516258995E+03  0.26319212286E+03 0.  0.
         25    1    4    4    0    0 -0.29037000714E+02  0.19251170162E+02 -0.21257786037E+02  0.13157946850E+03  0.12509000000E+03 0.  0.
         25    1    3    3    0    0  0.40516147925E+02 -0.18002207260E+02  0.71792847866E+02  0.15088856422E+03  0.12509000000E+03 0.  0.
         25    1    4    4    0    0 -0.11479147211E+02 -0.12489629020E+01 -0.10477880891E+03  0.16358312146E+03  0.12509000000E+03 0.  0.
<mgrwt>
<rscale>  2 0.44274061E+03</rscale>
<asrwt>0</asrwt>
<pdfrwt beam="1">  1       21 0.28809368E-01 0.44274061E+03</pdfrwt>
<pdfrwt beam="2">  1       21 0.36786390E-01 0.44274061E+03</pdfrwt>
<totfact> 0.76410934E+04</totfact>
</mgrwt>
</event>
<event>
 7    0  0.4709932E-002  0.4526158E+03  0.7546771E-02  0.1026945E+00
         21   -1    0    0  502  501  0.00000000000E+00  0.00000000000E+00  0.11025153377E+04  0.11025153377E+04  0.00000000000E+00 0.  1.
         21   -1    0    0  501  502 -0.00000000000E+00 -0.00000000000E+00 -0.46453113733E+02  0.46453113733E+02  0.00000000000E+00 0.  1.
      99926    2    1    2    0    0  0.00000000000E+00 -0.14210854715E-13  0.10560622239E+04  0.11489684514E+04  0.45261582108E+03 0.  0.
      99925    2    3    3    0    0  0.69547306834E+02  0.86141383383E+02  0.68416895553E+03  0.74128073145E+03  0.26296919454E+03 0.  0.
         25    1    4    4    0    0  0.47724353807E+02  0.83569102689E+02  0.35731300628E+03  0.39061682174E+03  0.12509000000E+03 0.  0.
         25    1    4    4    0    0  0.21822953028E+02  0.25722806948E+01  0.32685594926E+03  0.35066390971E+03  0.12509000000E+03 0.  0.
         25    1    3    3    0    0 -0.69547306834E+02 -0.86141383383E+02  0.37189326839E+03  0.40768771994E+03  0.12509000000E+03 0.  0.
<mgrwt>
<rscale>  2 0.45261582E+03</rscale>
<asrwt>0</asrwt>
<pdfrwt beam="1">  1       21 0.16213459E+00 0.45261582E+03</pdfrwt>
<pdfrwt beam="2">  1       21 0.68313409E-02 0.45261582E+03</pdfrwt>
<totfact> 0.34452577E+04</totfact>
</mgrwt>
</event>
<event>
 7    0  0.4709932E-002  0.3986628E+03  0.7546771E-02  0.1044244E+00
         21   -1    0    0  502  501  0.00000000000E+00  0.00000000000E+00  0.66549142132E+03  0.66549142132E+03  0.00000000000E+00 0.  1.
         21   -1    0    0  501  502 -0.00000000000E+00 -0.00000000000E+00 -0.59704774267E+02  0.59704774267E+02  0.00000000000E+00 0.  1.
      99926    2    1    2    0    0  0.88817841970E-15  0.44408920985E-15  0.60578664706E+03  0.72519619559E+03  0.39866284044E+03 0.  0.
      99925    2    3    3    0    0 -0.59683814233E+01 -0.37990253581E+01  0.48171117680E+03  0.54886615110E+03  0.26297973268E+03 0.  0.
         25    1    4    4    0    0  0.30600229828E+02  0.86412999853E+01  0.19725228806E+03  0.23572657757E+03  0.12509000000E+03 0.  0.
         25    1    3    3    0    0  0.59683814233E+01  0.37990253581E+01  0.12407547026E+03  0.17633004449E+03  0.12509000000E+03 0.  0.
         25    1    4    4    0    0 -0.36568611252E+02 -0.12440325343E+02  0.28445888874E+03  0.31313957352E+03  0.12509000000E+03 0.  0.
<mgrwt>
<rscale>  2 0.39866284E+03</rscale>
<asrwt>0</asrwt>
<pdfrwt beam="1">  1       21 0.97866381E-01 0.39866284E+03</pdfrwt>
<pdfrwt beam="2">  1       21 0.87801143E-02 0.39866284E+03</pdfrwt>
<totfact> 0.82459278E+04</totfact>
</mgrwt>
</event>
<event>
 7    0  0.4709932E-002  0.4682044E+03  0.7546771E-02  0.1022428E+00
         21   -1    0    0  502  501  0.00000000000E+00  0.00000000000E+00  0.42215816803E+02  0.42215816803E+02  0.00000000000E+00 0. -1.
         21   -1    0    0  501  502 -0.00000000000E+00 -0.00000000000E+00 -0.12981828380E+04  0.12981828380E+04  0.00000000000E+00 0. -1.
      99926    2    1    2    0    0  0.00000000000E+00  0.00000000000E+00 -0.12559670212E+04  0.13403986548E+04  0.46820443767E+03 0.  0.
      99925    2    3    3    0    0 -0.46562087036E+02  0.10252727140E+03 -0.93771986643E+03  0.98038667035E+03  0.26298214041E+03 0.  0.
         25    1    4    4    0    0  0.18180013298E+01  0.47167868391E+02 -0.34085993740E+03  0.36614357562E+03  0.12509000000E+03 0.  0.
         25    1    4    4    0    0 -0.48380088366E+02  0.55359403005E+02 -0.59685992903E+03  0.61424309474E+03  0.12509000000E+03 0.  0.
         25    1    3    3    0    0  0.46562087036E+02 -0.10252727140E+03 -0.31824715473E+03  0.36001198441E+03  0.12509000000E+03 0.  0.
<mgrwt>
<rscale>  2 0.46820444E+03</rscale>
<asrwt>0</asrwt>
<pdfrwt beam="1">  1       21 0.62082096E-02 0.46820444E+03</pdfrwt>
<pdfrwt beam="2">  1       21 0.19090920E+00 0.46820444E+03</pdfrwt>
<totfact> 0.25267964E+04</totfact>
</mgrwt>
</event>
<event>
 7    0  0.4709932E-002  0.4481202E+03  0.7546771E-02  0.1028284E+00
         21   -1    0    0  502  501  0.00000000000E+00  0.00000000000E+00  0.14544605753E+03  0.14544605753E+03  0.00000000000E+00 0.  1.
         21   -1    0    0  501  502 -0.00000000000E+00 -0.00000000000E+00 -0.34516527126E+03  0.34516527126E+03  0.00000000000E+00 0.  1.
      99926    2    1    2    0    0  0.00000000000E+00  0.00000000000E+00 -0.19971921373E+03  0.49061132879E+03  0.44812019771E+03 0.  0.
      99925    2    3    3    0    0 -0.59990306216E+02 -0.85220659224E+02 -0.10254868556E+03  0.30100379401E+03  0.26310768423E+03 0.  0.
         25    1    4    4    0    0 -0.51707997226E+02 -0.37269002931E+02 -0.88708367805E+02  0.16607040126E+03  0.12509000000E+03 0.  0.
         25    1    3    3    0    0  0.59990306216E+02  0.85220659224E+02 -0.97170528172E+02  0.18960753478E+03  0.12509000000E+03 0.  0.
         25    1    4    4    0    0 -0.82823089898E+01 -0.47951656293E+02 -0.13840317757E+02  0.13493339275E+03  0.12509000000E+03 0.  0.
<mgrwt>
<rscale>  2 0.44812020E+03</rscale>
<asrwt>0</asrwt>
<pdfrwt beam="1">  1       21 0.21389126E-01 0.44812020E+03</pdfrwt>
<pdfrwt beam="2">  1       21 0.50759599E-01 0.44812020E+03</pdfrwt>
<totfact> 0.69663064E+04</totfact>
</mgrwt>
</event>
<event>
 7    0  0.4709932E-002  0.4498188E+03  0.7546771E-02  0.1027776E+00
         21   -1    0    0  502  501  0.00000000000E+00  0.00000000000E+00  0.15601876452E+03  0.15601876452E+03  0.00000000000E+00 0. -1.
         21   -1    0    0  501  502 -0.00000000000E+00 -0.00000000000E+00 -0.32421898044E+03  0.32421898044E+03  0.00000000000E+00 0. -1.
      99926    2    1    2    0    0  0.00000000000E+00  0.00000000000E+00 -0.16820021592E+03  0.48023774496E+03  0.44981882914E+03 0.  0.
      99925    2    3    3    0    0 -0.32728396989E+02 -0.92388501703E+02 -0.15507750984E+03  0.32078086448E+03  0.26314358389E+03 0.  0.
         25    1    3    3    0    0  0.32728396989E+02  0.92388501703E+02 -0.13122706086E+02  0.15945688048E+03  0.12509000000E+03 0.  0.
         25    1    4    4    0    0 -0.53864960154E+02 -0.64854898053E+02 -0.88396797515E+02  0.17484019459E+03  0.12509000000E+03 0.  0.
         25    1    4    4    0    0  0.21136563164E+02 -0.27533603650E+02 -0.66680712320E+02  0.14594066989E+03  0.12509000000E+03 0.  0.
<mgrwt>
<rscale>  2 0.44981883E+03</rscale>
<asrwt>0</asrwt>
<pdfrwt beam="1">  1       21 0.22943936E-01 0.44981883E+03</pdfrwt>
<pdfrwt beam="2">  1       21 0.47679261E-01 0.44981883E+03</pdfrwt>
<totfact> 0.69497450E+04</totfact>
</mgrwt>
</event>
<event>
 7    0  0.4709932E-002  0.4574112E+03  0.7546771E-02  0.1025535E+00
         21   -1    0    0  502  501  0.00000000000E+00  0.00000000000E+00  0.44724113350E+03  0.44724113350E+03  0.00000000000E+00 0. -1.
         21   -1    0    0  501  502 -0.00000000000E+00 -0.00000000000E+00 -0.11695313669E+03  0.11695313669E+03  0.00000000000E+00 0. -1.
      99926    2    1    2    0    0 -0.71054273576E-14 -0.14210854715E-13  0.33028799681E+03  0.56419427019E+03  0.45741120852E+03 0.  0.
      99925    2    3    3    0    0  0.43280912462E+02  0.10509274882E+03  0.23340353773E+03  0.36938197656E+03  0.26277007049E+03 0.  0.
         25    1    4    4    0    0  0.21782386002E+01  0.15142392747E+02  0.11692449500E+03  0.17190951810E+03  0.12509000000E+03 0.  0.
         25    1    3    3    0    0 -0.43280912462E+02 -0.10509274882E+03  0.96884459084E+02  0.19481229363E+03  0.12509000000E+03 0.  0.
         25    1    4    4    0    0  0.41102673861E+02  0.89950356074E+02  0.11647904273E+03  0.19747245846E+03  0.12509000000E+03 0.  0.
<mgrwt>
<rscale>  2 0.45741121E+03</rscale>
<asrwt>0</asrwt>
<pdfrwt beam="1">  1       21 0.65770754E-01 0.45741121E+03</pdfrwt>
<pdfrwt beam="2">  1       21 0.17198991E-01 0.45741121E+03</pdfrwt>
<totfact> 0.59789774E+04</totfact>
</mgrwt>
</event>
<event>
 7    0  0.4709932E-002  0.4554522E+03  0.7546771E-02  0.1026109E+00
         21   -1    0    0  502  501  0.00000000000E+00  0.00000000000E+00  0.41904647127E+03  0.41904647127E+03  0.00000000000E+00 0.  1.
         21   -1    0    0  501  502 -0.00000000000E+00 -0.00000000000E+00 -0.12375520554E+03  0.12375520554E+03  0.00000000000E+00 0.  1.
      99926    2    1    2    0    0  0.00000000000E+00  0.14210854715E-13  0.29529126573E+03  0.54280167681E+03  0.45545222442E+03 0.  0.
      99925    2    3    3    0    0 -0.18153809016E+02  0.93738509738E+02  0.11263726157E+03  0.30170737508E+03  0.26310400699E+03 0.  0.
         25    1    4    4    0    0 -0.29540152066E+02  0.12945929485E+02  0.67122008815E+02  0.14557846627E+03  0.12509000000E+03 0.  0.
         25    1    4    4    0    0  0.11386343050E+02  0.80792580252E+02  0.45515252752E+02  0.15612890881E+03  0.12509000000E+03 0.  0.
         25    1    3    3    0    0  0.18153809016E+02 -0.93738509738E+02  0.18265400417E+03  0.24109430173E+03  0.12509000000E+03 0.  0.
<mgrwt>
<rscale>  2 0.45545222E+03</rscale>
<asrwt>0</asrwt>
<pdfrwt beam="1">  1       21 0.61624481E-01 0.45545222E+03</pdfrwt>
<pdfrwt beam="2">  1       21 0.18199295E-01 0.45545222E+03</pdfrwt>
<totfact> 0.62122095E+04</totfact>
</mgrwt>
</event>
<event>
 7    0  0.4709932E-002  0.4597948E+03  0.7546771E-02  0.1024841E+00
         21   -1    0    0  502  501  0.00000000000E+00  0.00000000000E+00  0.21496379286E+03  0.21496379286E+03  0.00000000000E+00 0. -1.
         21   -1    0    0  501  502 -0.00000000000E+00 -0.00000000000E+00 -0.24586844060E+03  0.24586844060E+03  0.00000000000E+00 0. -1.
      99926    2    1    2    0    0  0.00000000000E+00  0.00000000000E+00 -0.30904647742E+02  0.46083223347E+03  0.45979479135E+03 0.  0.
      99925    2    3    3    0    0  0.90324948090E+02  0.67699531924E+02  0.13705813546E+02  0.28653529079E+03  0.26300722551E+03 0.  0.
         25    1    3    3    0    0 -0.90324948090E+02 -0.67699531924E+02 -0.44610461287E+02  0.17429694268E+03  0.12509000000E+03 0.  0.
         25    1    4    4    0    0  0.84603161448E+02  0.25192502912E+02  0.18468754291E+02  0.15421076524E+03  0.12509000000E+03 0.  0.
         25    1    4    4    0    0  0.57217866420E+01  0.42507029012E+02 -0.47629407447E+01  0.13232452555E+03  0.12509000000E+03 0.  0.
<mgrwt>
<rscale>  2 0.45979479E+03</rscale>
<asrwt>0</asrwt>
<pdfrwt beam="1">  1       21 0.31612323E-01 0.45979479E+03</pdfrwt>
<pdfrwt beam="2">  1       21 0.36157123E-01 0.45979479E+03</pdfrwt>
<totfact> 0.65575815E+04</totfact>
</mgrwt>
</event>
<event>
 7    0  0.4709932E-002  0.4509127E+03  0.7546771E-02  0.1027450E+00
         21   -1    0    0  502  501  0.00000000000E+00  0.00000000000E+00  0.10419411750E+04  0.10419411750E+04  0.00000000000E+00 0.  1.
         21   -1    0    0  501  502 -0.00000000000E+00 -0.00000000000E+00 -0.48784491785E+02  0.48784491785E+02  0.00000000000E+00 0.  1.
      99926    2    1    2    0    0  0.00000000000E+00 -0.13322676296E-14  0.99315668324E+03  0.10907256668E+04  0.45091272190E+03 0.  0.
      99925    2    3    3    0    0  0.19881473845E+02 -0.33555479493E+01  0.36745352898E+03  0.45232259816E+03  0.26299639569E+03 0.  0.
         25    1    4    4    0    0 -0.96650166106E+01  0.18745006919E+02  0.23117882554E+03  0.26369669188E+03  0.12509000000E+03 0.  0.
         25    1    3    3    0    0 -0.19881473845E+02  0.33555479493E+01  0.62570315427E+03  0.63840306865E+03  0.12509000000E+03 0.  0.
         25    1    4    4    0    0  0.29546490456E+02 -0.22100554868E+02  0.13627470343E+03  0.18862590628E+03  0.12509000000E+03 0.  0.
<mgrwt>
<rscale>  2 0.45091272E+03</rscale>
<asrwt>0</asrwt>
<pdfrwt beam="1">  1       21 0.15322663E+00 0.45091272E+03</pdfrwt>
<pdfrwt beam="2">  1       21 0.71741906E-02 0.45091272E+03</pdfrwt>
<totfact> 0.36982827E+04</totfact>
</mgrwt>
</event>
<event>
 7    0  0.4709932E-002  0.4530634E+03  0.7546771E-02  0.1026812E+00
         21   -1    0    0  502  501  0.00000000000E+00  0.00000000000E+00  0.17261858106E+03  0.17261858106E+03  0.00000000000E+00 0. -1.
         21   -1    0    0  501  502 -0.00000000000E+00 -0.00000000000E+00 -0.29728320506E+03  0.29728320506E+03  0.00000000000E+00 0. -1.
      99926    2    1    2    0    0  0.00000000000E+00 -0.71054273576E-14 -0.12466462400E+03  0.46990178611E+03  0.45306337318E+03 0.  0.
      99925    2    3    3    0    0 -0.81820661860E+02 -0.60628278690E+02 -0.31898127197E+02  0.28382776882E+03  0.26300247708E+03 0.  0.
         25    1    3    3    0    0  0.81820661860E+02  0.60628278690E+02 -0.92766496804E+02  0.18607401730E+03  0.12509000000E+03 0.  0.
         25    1    4    4    0    0 -0.54757242505E+02 -0.35190125907E+02  0.21868508212E+02  0.14269702281E+03  0.12509000000E+03 0.  0.
         25    1    4    4    0    0 -0.27063419355E+02 -0.25438152783E+02 -0.53766635409E+02  0.14113074600E+03  0.12509000000E+03 0.  0.
<mgrwt>
<rscale>  2 0.45306337E+03</rscale>
<asrwt>0</asrwt>
<pdfrwt beam="1">  1       21 0.25385086E-01 0.45306337E+03</pdfrwt>
<pdfrwt beam="2">  1       21 0.43718118E-01 0.45306337E+03</pdfrwt>
<totfact> 0.68489270E+04</totfact>
</mgrwt>
</event>
<event>
 7    0  0.4709932E-002  0.4612392E+03  0.7546771E-02  0.1024422E+00
         21   -1    0    0  502  501  0.00000000000E+00  0.00000000000E+00  0.27955228907E+03  0.27955228907E+03  0.00000000000E+00 0.  1.
         21   -1    0    0  501  502 -0.00000000000E+00 -0.00000000000E+00 -0.19025206549E+03  0.19025206549E+03  0.00000000000E+00 0.  1.
      99926    2    1    2    0    0  0.00000000000E+00 -0.88817841970E-15  0.89300223583E+02  0.46980435456E+03  0.46123920219E+03 0.  0.
      99925    2    3    3    0    0 -0.98176869829E+02  0.56800542103E+01 -0.12173593089E+02  0.28108391488E+03  0.26303803917E+03 0.  0.
         25    1    3    3    0    0  0.98176869829E+02 -0.56800542103E+01  0.10147381667E+03  0.18872043969E+03  0.12509000000E+03 0.  0.
         25    1    4    4    0    0 -0.21995632941E+02 -0.98883392488E+01 -0.34819219930E+02  0.13206617015E+03  0.12509000000E+03 0.  0.
         25    1    4    4    0    0 -0.76181236888E+02  0.15568393459E+02  0.22645626841E+02  0.14901774473E+03  0.12509000000E+03 0.  0.
<mgrwt>
<rscale>  2 0.46123920E+03</rscale>
<asrwt>0</asrwt>
<pdfrwt beam="1">  1       21 0.41110631E-01 0.46123920E+03</pdfrwt>
<pdfrwt beam="2">  1       21 0.27978245E-01 0.46123920E+03</pdfrwt>
<totfact> 0.64210812E+04</totfact>
</mgrwt>
</event>
<event>
 7    0  0.4709932E-002  0.4591547E+03  0.7546771E-02  0.1025027E+00
         21   -1    0    0  502  501  0.00000000000E+00  0.00000000000E+00  0.71264046101E+02  0.71264046101E+02  0.00000000000E+00 0.  1.
         21   -1    0    0  501  502 -0.00000000000E+00 -0.00000000000E+00 -0.73958406180E+03  0.73958406180E+03  0.00000000000E+00 0.  1.
      99926    2    1    2    0    0  0.00000000000E+00  0.00000000000E+00 -0.66832001570E+03  0.81084810790E+03  0.45915466970E+03 0.  0.
      99925    2    3    3    0    0  0.74616629264E+02 -0.33785965946E+02 -0.56652065345E+03  0.62996209099E+03  0.26305408655E+03 0.  0.
         25    1    3    3    0    0 -0.74616629264E+02  0.33785965946E+02 -0.10179936225E+03  0.18088601691E+03  0.12509000000E+03 0.  0.
         25    1    4    4    0    0  0.13826971453E+02  0.15587370645E+02 -0.23375939209E+03  0.26594193493E+03  0.12509000000E+03 0.  0.
         25    1    4    4    0    0  0.60789657812E+02 -0.49373336591E+02 -0.33276126135E+03  0.36402015606E+03  0.12509000000E+03 0.  0.
<mgrwt>
<rscale>  2 0.45915467E+03</rscale>
<asrwt>0</asrwt>
<pdfrwt beam="1">  1       21 0.10480007E-01 0.45915467E+03</pdfrwt>
<pdfrwt beam="2">  1       21 0.10876236E+00 0.45915467E+03</pdfrwt>
<totfact> 0.45735166E+04</totfact>
</mgrwt>
</event>
<event>
 7    0  0.4709932E-002  0.4532724E+03  0.7546771E-02  0.1026751E+00
         21   -1    0    0  502  501  0.00000000000E+00  0.00000000000E+00  0.65768511802E+02  0.65768511802E+02  0.00000000000E+00 0. -1.
         21   -1    0    0  501  502 -0.00000000000E+00 -0.00000000000E+00 -0.78098126604E+03  0.78098126604E+03  0.00000000000E+00 0. -1.
      99926    2    1    2    0    0  0.00000000000E+00  0.00000000000E+00 -0.71521275424E+03  0.84674977784E+03  0.45327243734E+03 0.  0.
      99925    2    3    3    0    0 -0.64868665361E+02 -0.75076333481E+02 -0.54852559502E+03  0.61593271447E+03  0.26200836011E+03 0.  0.
         25    1    4    4    0    0 -0.96474660228E+01 -0.31400313729E+02 -0.19099817277E+03  0.23066612973E+03  0.12509000000E+03 0.  0.
         25    1    4    4    0    0 -0.55221199339E+02 -0.43676019752E+02 -0.35752742225E+03  0.38526658474E+03  0.12509000000E+03 0.  0.
         25    1    3    3    0    0  0.64868665361E+02  0.75076333481E+02 -0.16668715922E+03  0.23081706337E+03  0.12509000000E+03 0.  0.
<mgrwt>
<rscale>  2 0.45327244E+03</rscale>
<asrwt>0</asrwt>
<pdfrwt beam="1">  1       21 0.96718398E-02 0.45327244E+03</pdfrwt>
<pdfrwt beam="2">  1       21 0.11485019E+00 0.45327244E+03</pdfrwt>
<totfact> 0.46208177E+04</totfact>
</mgrwt>
</event>
<event>
 7    0  0.4709932E-002  0.4324202E+03  0.7546771E-02  0.1033098E+00
         21   -1    0    0  502  501  0.00000000000E+00  0.00000000000E+00  0.28448455636E+03  0.28448455636E+03  0.00000000000E+00 0. -1.
         21   -1    0    0  501  502 -0.00000000000E+00 -0.00000000000E+00 -0.16432107319E+03  0.16432107319E+03  0.00000000000E+00 0. -1.
      99926    2    1    2    0    0  0.00000000000E+00  0.00000000000E+00  0.12016348317E+03  0.44880562956E+03  0.43242020123E+03 0.  0.
      99925    2    3    3    0    0  0.67709282156E+02  0.17239976029E+02  0.13673473297E+03  0.30457013433E+03  0.26303006646E+03 0.  0.
         25    1    3    3    0    0 -0.67709282156E+02 -0.17239976029E+02 -0.16571249806E+02  0.14423549523E+03  0.12509000000E+03 0.  0.
         25    1    4    4    0    0  0.15006219610E+02 -0.18594303806E+02  0.37871160076E+02  0.13286334192E+03  0.12509000000E+03 0.  0.
         25    1    4    4    0    0  0.52703062546E+02  0.35834279835E+02  0.98863572897E+02  0.17170679241E+03  0.12509000000E+03 0.  0.
<mgrwt>
<rscale>  2 0.43242020E+03</rscale>
<asrwt>0</asrwt>
<pdfrwt beam="1">  1       21 0.41835964E-01 0.43242020E+03</pdfrwt>
<pdfrwt beam="2">  1       21 0.24164864E-01 0.43242020E+03</pdfrwt>
<totfact> 0.82933217E+04</totfact>
</mgrwt>
</event>
<event>
 7    0  0.4709932E-002  0.4596650E+03  0.7546771E-02  0.1024878E+00
         21   -1    0    0  502  501  0.00000000000E+00  0.00000000000E+00  0.88680615405E+03  0.88680615405E+03  0.00000000000E+00 0. -1.
         21   -1    0    0  501  502 -0.00000000000E+00 -0.00000000000E+00 -0.59565409123E+02  0.59565409123E+02  0.00000000000E+00 0. -1.
      99926    2    1    2    0    0  0.00000000000E+00  0.14210854715E-13  0.82724074493E+03  0.94637156317E+03  0.45966497094E+03 0.  0.
      99925    2    3    3    0    0 -0.28011128382E+02 -0.10964438234E+03  0.45341535805E+03  0.53625031053E+03  0.26300645380E+03 0.  0.
         25    1    4    4    0    0 -0.43308489313E+02 -0.75131619132E+02  0.28492716447E+03  0.32303464612E+03  0.12509000000E+03 0.  0.
         25    1    4    4    0    0  0.15297360931E+02 -0.34512763211E+02  0.16848819358E+03  0.21321566442E+03  0.12509000000E+03 0.  0.
         25    1    3    3    0    0  0.28011128382E+02  0.10964438234E+03  0.37382538688E+03  0.41012125264E+03  0.12509000000E+03 0.  0.
<mgrwt>
<rscale>  2 0.45966497E+03</rscale>
<asrwt>0</asrwt>
<pdfrwt beam="1">  1       21 0.13041266E+00 0.45966497E+03</pdfrwt>
<pdfrwt beam="2">  1       21 0.87596195E-02 0.45966497E+03</pdfrwt>
<totfact> 0.39815601E+04</totfact>
</mgrwt>
</event>
<event>
 7    0  0.4709932E-002  0.4481279E+03  0.7546771E-02  0.1028282E+00
         21   -1    0    0  502  501  0.00000000000E+00  0.00000000000E+00  0.44047437101E+02  0.44047437101E+02  0.00000000000E+00 0.  1.
         21   -1    0    0  501  502 -0.00000000000E+00 -0.00000000000E+00 -0.11397858537E+04  0.11397858537E+04  0.00000000000E+00 0.  1.
      99926    2    1    2    0    0  0.00000000000E+00  0.00000000000E+00 -0.10957384166E+04  0.11838332908E+04  0.44812786434E+03 0.  0.
      99925    2    3    3    0    0 -0.76804530234E+02 -0.57578870570E+02 -0.81641922440E+03  0.86308263775E+03  0.26297723746E+03 0.  0.
         25    1    4    4    0    0 -0.14810244650E+00 -0.97246169459E+01 -0.35146857628E+03  0.37319198587E+03  0.12509000000E+03 0.  0.
         25    1    4    4    0    0 -0.76656427788E+02 -0.47854253624E+02 -0.46495064812E+03  0.48989065188E+03  0.12509000000E+03 0.  0.
         25    1    3    3    0    0  0.76804530234E+02  0.57578870570E+02 -0.27931919221E+03  0.32075065306E+03  0.12509000000E+03 0.  0.
<mgrwt>
<rscale>  2 0.44812786E+03</rscale>
<asrwt>0</asrwt>
<pdfrwt beam="1">  1       21 0.64775651E-02 0.44812786E+03</pdfrwt>
<pdfrwt beam="2">  1       21 0.16761554E+00 0.44812786E+03</pdfrwt>
<totfact> 0.34482152E+04</totfact>
</mgrwt>
</event>
<event>
 7    0  0.4709932E-002  0.4554422E+03  0.7546771E-02  0.1026111E+00
         21   -1    0    0  502  501  0.00000000000E+00  0.00000000000E+00  0.10719158586E+03  0.10719158586E+03  0.00000000000E+00 0. -1.
         21   -1    0    0  501  502 -0.00000000000E+00 -0.00000000000E+00 -0.48377774996E+03  0.48377774996E+03  0.00000000000E+00 0. -1.
      99926    2    1    2    0    0  0.00000000000E+00  0.00000000000E+00 -0.37658616410E+03  0.59096933582E+03  0.45544222124E+03 0.  0.
      99925    2    3    3    0    0  0.17423917115E+02 -0.95602375180E+02 -0.16069283923E+03  0.32319920520E+03  0.26304397092E+03 0.  0.
         25    1    3    3    0    0 -0.17423917115E+02  0.95602375180E+02 -0.21589332487E+03  0.26777013062E+03  0.12509000000E+03 0.  0.
         25    1    4    4    0    0 -0.91569211777E+01 -0.36695197565E+02 -0.11799262483E+03  0.17606860693E+03  0.12509000000E+03 0.  0.
         25    1    4    4    0    0  0.26580838292E+02 -0.58907177615E+02 -0.42700214394E+02  0.14713059827E+03  0.12509000000E+03 0.  0.
<mgrwt>
<rscale>  2 0.45544222E+03</rscale>
<asrwt>0</asrwt>
<pdfrwt beam="1">  1       21 0.15763468E-01 0.45544222E+03</pdfrwt>
<pdfrwt beam="2">  1       21 0.71143787E-01 0.45544222E+03</pdfrwt>
<totfact> 0.59031013E+04</totfact>
</mgrwt>
</event>
<event>
 7    0  0.4709932E-002  0.4561522E+03  0.7546771E-02  0.1025903E+00
         21   -1    0    0  502  501  0.00000000000E+00  0.00000000000E+00  0.24554878667E+03  0.24554878667E+03  0.00000000000E+00 0.  1.
         21   -1    0    0  501  502 -0.00000000000E+00 -0.00000000000E+00 -0.21184670441E+03  0.21184670441E+03  0.00000000000E+00 0.  1.
      99926    2    1    2    0    0  0.00000000000E+00  0.00000000000E+00  0.33702082266E+02  0.45739549108E+03  0.45615217298E+03 0.  0.
      99925    2    3    3    0    0 -0.77449098647E+02 -0.83141446296E+02  0.99496252468E+01  0.28674218673E+03  0.26308026082E+03 0.  0.
         25    1    3    3    0    0  0.77449098647E+02  0.83141446296E+02  0.23752457020E+02  0.17065330436E+03  0.12509000000E+03 0.  0.
         25    1    4    4    0    0 -0.34327822320E+02 -0.35851647906E+02 -0.35290078761E+02  0.13912813447E+03  0.12509000000E+03 0.  0.
         25    1    4    4    0    0 -0.43121276327E+02 -0.47289798389E+02  0.45239704008E+02  0.14761405225E+03  0.12509000000E+03 0.  0.
<mgrwt>
<rscale>  2 0.45615217E+03</rscale>
<asrwt>0</asrwt>
<pdfrwt beam="1">  1       21 0.36110116E-01 0.45615217E+03</pdfrwt>
<pdfrwt beam="2">  1       21 0.31153927E-01 0.45615217E+03</pdfrwt>
<totfact> 0.67745767E+04</totfact>
</mgrwt>
</event>
<event>
 7    0  0.4709932E-002  0.4555574E+03  0.7546771E-02  0.1026078E+00
         21   -1    0    0  502  501  0.00000000000E+00  0.00000000000E+00  0.55878675761E+03  0.55878675761E+03  0.00000000000E+00 0. -1.
         21   -1    0    0  501  502 -0.00000000000E+00 -0.00000000000E+00 -0.92849604624E+02  0.92849604624E+02  0.00000000000E+00 0. -1.
      99926    2    1    2    0    0  0.00000000000E+00  0.00000000000E+00  0.46593715298E+03  0.65163636223E+03  0.45555737076E+03 0.  0.
      99925    2    3    3    0    0  0.34603142498E+02 -0.10450059659E+03  0.33306616357E+03  0.43851677119E+03  0.26314660770E+03 0.  0.
         25    1    4    4    0    0 -0.88773343770E+01 -0.41803909998E+02  0.20495062790E+03  0.24388243466E+03  0.12509000000E+03 0.  0.
         25    1    3    3    0    0 -0.34603142498E+02  0.10450059659E+03  0.13287098941E+03  0.21311959104E+03  0.12509000000E+03 0.  0.
         25    1    4    4    0    0  0.43480476875E+02 -0.62696686588E+02  0.12811553567E+03  0.19463433653E+03  0.12509000000E+03 0.  0.
<mgrwt>
<rscale>  2 0.45555737E+03</rscale>
<asrwt>0</asrwt>
<pdfrwt beam="1">  1       21 0.82174521E-01 0.45555737E+03</pdfrwt>
<pdfrwt beam="2">  1       21 0.13654354E-01 0.45555737E+03</pdfrwt>
<totfact> 0.55363493E+04</totfact>
</mgrwt>
</event>
<event>
 7    0  0.4709932E-002  0.4549427E+03  0.7546771E-02  0.1026258E+00
         21   -1    0    0  502  501  0.00000000000E+00  0.00000000000E+00  0.82050324662E+03  0.82050324662E+03  0.00000000000E+00 0. -1.
         21   -1    0    0  501  502 -0.00000000000E+00 -0.00000000000E+00 -0.63062769057E+02  0.63062769057E+02  0.00000000000E+00 0. -1.
      99926    2    1    2    0    0  0.71054273576E-14  0.00000000000E+00  0.75744047757E+03  0.88356601568E+03  0.45494266343E+03 0.  0.
      99925    2    3    3    0    0  0.61633950470E+02  0.73120900468E+02  0.59387753702E+03  0.65652911658E+03  0.26304855445E+03 0.  0.
         25    1    3    3    0    0 -0.61633950470E+02 -0.73120900468E+02  0.16356294055E+03  0.22703689911E+03  0.12509000000E+03 0.  0.
         25    1    4    4    0    0  0.71016944310E+01  0.15334145471E+02  0.33850552340E+03  0.36127422763E+03  0.12509000000E+03 0.  0.
         25    1    4    4    0    0  0.54532256039E+02  0.57786754997E+02  0.25537201363E+03  0.29525488894E+03  0.12509000000E+03 0.  0.
<mgrwt>
<rscale>  2 0.45494266E+03</rscale>
<asrwt>0</asrwt>
<pdfrwt beam="1">  1       21 0.12066224E+00 0.45494266E+03</pdfrwt>
<pdfrwt beam="2">  1       21 0.92739371E-02 0.45494266E+03</pdfrwt>
<totfact> 0.43971628E+04</totfact>
</mgrwt>
</event>
<event>
 7    0  0.4709932E-002  0.4506526E+03  0.7546771E-02  0.1027528E+00
         21   -1    0    0  502  501  0.00000000000E+00  0.00000000000E+00  0.66030276704E+02  0.66030276704E+02  0.00000000000E+00 0. -1.
         21   -1    0    0  501  502 -0.00000000000E+00 -0.00000000000E+00 -0.76891915172E+03  0.76891915172E+03  0.00000000000E+00 0. -1.
      99926    2    1    2    0    0  0.00000000000E+00  0.00000000000E+00 -0.70288887502E+03  0.83494942843E+03  0.45065261278E+03 0.  0.
      99925    2    3    3    0    0  0.10292928681E+03 -0.32371767776E+02 -0.41495234949E+03  0.50298961118E+03  0.26300328358E+03 0.  0.
         25    1    4    4    0    0  0.20526637621E+02 -0.78294955946E+01 -0.14076927555E+03  0.18959467527E+03  0.12509000000E+03 0.  0.
         25    1    4    4    0    0  0.82402649189E+02 -0.24542272181E+02 -0.27418307394E+03  0.31339493590E+03  0.12509000000E+03 0.  0.
         25    1    3    3    0    0 -0.10292928681E+03  0.32371767776E+02 -0.28793652553E+03  0.33195981725E+03  0.12509000000E+03 0.  0.
<mgrwt>
<rscale>  2 0.45065261E+03</rscale>
<asrwt>0</asrwt>
<pdfrwt beam="1">  1       21 0.97103347E-02 0.45065261E+03</pdfrwt>
<pdfrwt beam="2">  1       21 0.11307635E+00 0.45065261E+03</pdfrwt>
<totfact> 0.47727527E+04</totfact>
</mgrwt>
</event>
<event>
 7    0  0.4709932E-002  0.4605138E+03  0.7546771E-02  0.1024632E+00
         21   -1    0    0  502  501  0.00000000000E+00  0.00000000000E+00  0.29894122244E+03  0.29894122244E+03  0.00000000000E+00 0.  1.
         21   -1    0    0  501  502 -0.00000000000E+00 -0.00000000000E+00 -0.17735340184E+03  0.17735340184E+03  0.00000000000E+00 0.  1.
      99926    2    1    2    0    0  0.00000000000E+00  0.14210854715E-13  0.12158782059E+03  0.47629462428E+03  0.46051381195E+03 0.  0.
      99925    2    3    3    0    0 -0.71130453375E+02  0.90548400729E+02  0.10405224659E+03  0.30537488075E+03  0.26299884696E+03 0.  0.
         25    1    3    3    0    0  0.71130453375E+02 -0.90548400729E+02  0.17535573998E+02  0.17091974353E+03  0.12509000000E+03 0.  0.
         25    1    4    4    0    0  0.20917181062E+01  0.33994195272E+02  0.64683096478E+02  0.14488406285E+03  0.12509000000E+03 0.  0.
         25    1    4    4    0    0 -0.73222171481E+02  0.56554205457E+02  0.39369150117E+02  0.16049081791E+03  0.12509000000E+03 0.  0.
<mgrwt>
<rscale>  2 0.46051381E+03</rscale>
<asrwt>0</asrwt>
<pdfrwt beam="1">  1       21 0.43961945E-01 0.46051381E+03</pdfrwt>
<pdfrwt beam="2">  1       21 0.26081382E-01 0.46051381E+03</pdfrwt>
<totfact> 0.64119288E+04</totfact>
</mgrwt>
</event>
<event>
 7    0  0.4709932E-002  0.4453094E+03  0.7546771E-02  0.1029130E+00
         21   -1    0    0  502  501  0.00000000000E+00  0.00000000000E+00  0.49409615124E+02  0.49409615124E+02  0.00000000000E+00 0. -1.
         21   -1    0    0  501  502 -0.00000000000E+00 -0.00000000000E+00 -0.10033494195E+04  0.10033494195E+04  0.00000000000E+00 0. -1.
      99926    2    1    2    0    0  0.00000000000E+00  0.00000000000E+00 -0.95393980433E+03  0.10527590346E+04  0.44530936954E+03 0.  0.
      99925    2    3    3    0    0 -0.38110672109E+02 -0.69033282010E+02 -0.76537058757E+03  0.81312624266E+03  0.26299074666E+03 0.  0.
         25    1    4    4    0    0  0.15460484295E+02 -0.52566551937E+02 -0.41528359505E+03  0.43716157353E+03  0.12509000000E+03 0.  0.
         25    1    3    3    0    0  0.38110672109E+02  0.69033282010E+02 -0.18856921676E+03  0.23963279192E+03  0.12509000000E+03 0.  0.
         25    1    4    4    0    0 -0.53571156404E+02 -0.16466730073E+02 -0.35008699252E+03  0.37596466912E+03  0.12509000000E+03 0.  0.
<mgrwt>
<rscale>  2 0.44530937E+03</rscale>
<asrwt>0</asrwt>
<pdfrwt beam="1">  1       21 0.72661205E-02 0.44530937E+03</pdfrwt>
<pdfrwt beam="2">  1       21 0.14755137E+00 0.44530937E+03</pdfrwt>
<totfact> 0.40126441E+04</totfact>
</mgrwt>
</event>
<event>
 7    0  0.4709932E-002  0.4452323E+03  0.7546771E-02  0.1029153E+00
         21   -1    0    0  502  501  0.00000000000E+00  0.00000000000E+00  0.30324984409E+03  0.30324984409E+03  0.00000000000E+00 0. -1.
         21   -1    0    0  501  502 -0.00000000000E+00 -0.00000000000E+00 -0.16342287200E+03  0.16342287200E+03  0.00000000000E+00 0. -1.
      99926    2    1    2    0    0 -0.17763568394E-14 -0.88817841970E-15  0.13982697210E+03  0.46667271609E+03  0.44523234588E+03 0.  0.
      99925    2    3    3    0    0 -0.15867476957E+02  0.30449516744E+01  0.19582113277E+03  0.32867306868E+03  0.26347489724E+03 0.  0.
         25    1    4    4    0    0 -0.42819061728E+02 -0.13799479155E+02  0.79289605507E+02  0.15478451897E+03  0.12509000000E+03 0.  0.
         25    1    4    4    0    0  0.26951584772E+02  0.16844430829E+02  0.11653152727E+03  0.17388854970E+03  0.12509000000E+03 0.  0.
         25    1    3    3    0    0  0.15867476957E+02 -0.30449516744E+01 -0.55994160675E+02  0.13799964741E+03  0.12509000000E+03 0.  0.
<mgrwt>
<rscale>  2 0.44523235E+03</rscale>
<asrwt>0</asrwt>
<pdfrwt beam="1">  1       21 0.44595565E-01 0.44523235E+03</pdfrwt>
<pdfrwt beam="2">  1       21 0.24032775E-01 0.44523235E+03</pdfrwt>
<totfact> 0.73194233E+04</totfact>
</mgrwt>
</event>
<event>
 7    0  0.4709932E-002  0.4179547E+03  0.7546771E-02  0.1037734E+00
         21   -1    0    0  502  501  0.00000000000E+00  0.00000000000E+00  0.26979053194E+02  0.26979053194E+02  0.00000000000E+00 0. -1.
         21   -1    0    0  501  502 -0.00000000000E+00 -0.00000000000E+00 -0.16187203704E+04  0.16187203704E+04  0.00000000000E+00 0. -1.
      99926    2    1    2    0    0 -0.71054273576E-14  0.00000000000E+00 -0.15917413172E+04  0.16456994236E+04  0.41795474865E+03 0.  0.
      99925    2    3    3    0    0 -0.62752411094E+02  0.33253816578E+02 -0.11106553031E+04  0.11435690197E+04  0.26296619397E+03 0.  0.
         25    1    4    4    0    0 -0.51320203109E+02  0.37315920249E+01 -0.42933000909E+03  0.45013270580E+03  0.12509000000E+03 0.  0.
         25    1    4    4    0    0 -0.11432207984E+02  0.29522224553E+02 -0.68132529400E+03  0.69343631393E+03  0.12509000000E+03 0.  0.
         25    1    3    3    0    0  0.62752411094E+02 -0.33253816578E+02 -0.48108601415E+03  0.50213040390E+03  0.12509000000E+03 0.  0.
<mgrwt>
<rscale>  2 0.41795475E+03</rscale>
<asrwt>0</asrwt>
<pdfrwt beam="1">  1       21 0.39675064E-02 0.41795475E+03</pdfrwt>
<pdfrwt beam="2">  1       21 0.23804720E+00 0.41795475E+03</pdfrwt>
<totfact> 0.27521224E+04</totfact>
</mgrwt>
</event>
<event>
 7    0  0.4709932E-002  0.4559134E+03  0.7546771E-02  0.1025973E+00
         21   -1    0    0  502  501  0.00000000000E+00  0.00000000000E+00  0.77905138075E+02  0.77905138075E+02  0.00000000000E+00 0.  1.
         21   -1    0    0  501  502 -0.00000000000E+00 -0.00000000000E+00 -0.66701954491E+03  0.66701954491E+03  0.00000000000E+00 0.  1.
      99926    2    1    2    0    0  0.00000000000E+00 -0.35527136788E-14 -0.58911440684E+03  0.74492468299E+03  0.45591336785E+03 0.  0.
      99925    2    3    3    0    0  0.10969266591E+03  0.25698133955E+02 -0.34150619482E+03  0.44550823421E+03  0.26297952506E+03 0.  0.
         25    1    3    3    0    0 -0.10969266591E+03 -0.25698133955E+02 -0.24760821201E+03  0.29941644878E+03  0.12509000000E+03 0.  0.
         25    1    4    4    0    0  0.70429157699E+02  0.26203771541E+02 -0.23486191068E+03  0.27650412128E+03  0.12509000000E+03 0.  0.
         25    1    4    4    0    0  0.39263508207E+02 -0.50563758562E+00 -0.10664428415E+03  0.16900411293E+03  0.12509000000E+03 0.  0.
<mgrwt>
<rscale>  2 0.45591337E+03</rscale>
<asrwt>0</asrwt>
<pdfrwt beam="1">  1       21 0.11456638E-01 0.45591337E+03</pdfrwt>
<pdfrwt beam="2">  1       21 0.98091109E-01 0.45591337E+03</pdfrwt>
<totfact> 0.50169607E+04</totfact>
</mgrwt>
</event>
<event>
 7    0  0.4709932E-002  0.4512842E+03  0.7546771E-02  0.1027340E+00
         21   -1    0    0  502  501  0.00000000000E+00  0.00000000000E+00  0.11788678230E+04  0.11788678230E+04  0.00000000000E+00 0.  1.
         21   -1    0    0  501  502 -0.00000000000E+00 -0.00000000000E+00 -0.43189207119E+02  0.43189207119E+02  0.00000000000E+00 0.  1.
      99926    2    1    2    0    0  0.00000000000E+00  0.00000000000E+00  0.11356786159E+04  0.12220570301E+04  0.45128424113E+03 0.  0.
      99925    2    3    3    0    0  0.77488853234E+02 -0.29236576409E+02  0.52255340059E+03  0.59084443716E+03  0.26301291354E+03 0.  0.
         25    1    3    3    0    0 -0.77488853234E+02  0.29236576409E+02  0.61312521527E+03  0.63121259293E+03  0.12509000000E+03 0.  0.
         25    1    4    4    0    0  0.13812228160E+01 -0.17432511448E+02  0.28183481598E+03  0.30884328037E+03  0.12509000000E+03 0.  0.
         25    1    4    4    0    0  0.76107630418E+02 -0.11804064961E+02  0.24071858461E+03  0.28200115680E+03  0.12509000000E+03 0.  0.
<mgrwt>
<rscale>  2 0.45128424E+03</rscale>
<asrwt>0</asrwt>
<pdfrwt beam="1">  1       21 0.17336289E+00 0.45128424E+03</pdfrwt>
<pdfrwt beam="2">  1       21 0.63513548E-02 0.45128424E+03</pdfrwt>
<totfact> 0.32391837E+04</totfact>
</mgrwt>
</event>
<event>
 7    0  0.4709932E-002  0.4715064E+03  0.7546771E-02  0.1021496E+00
         21   -1    0    0  502  501  0.00000000000E+00  0.00000000000E+00  0.19003516615E+03  0.19003516615E+03  0.00000000000E+00 0.  1.
         21   -1    0    0  501  502 -0.00000000000E+00 -0.00000000000E+00 -0.29246989745E+03  0.29246989745E+03  0.00000000000E+00 0.  1.
      99926    2    1    2    0    0  0.00000000000E+00  0.00000000000E+00 -0.10243473130E+03  0.48250506359E+03  0.47150637558E+03 0.  0.
      99925    2    3    3    0    0  0.31136929980E+02  0.99308126351E+02  0.12737485616E+02  0.28314669277E+03  0.26301747797E+03 0.  0.
         25    1    4    4    0    0  0.36098415060E+02  0.15831775257E+02  0.19142147169E+02  0.13254308951E+03  0.12509000000E+03 0.  0.
         25    1    3    3    0    0 -0.31136929980E+02 -0.99308126351E+02 -0.11517221691E+03  0.19935837082E+03  0.12509000000E+03 0.  0.
         25    1    4    4    0    0 -0.49614850800E+01  0.83476351095E+02 -0.64046615524E+01  0.15060360326E+03  0.12509000000E+03 0.  0.
<mgrwt>
<rscale>  2 0.47150638E+03</rscale>
<asrwt>0</asrwt>
<pdfrwt beam="1">  1       21 0.27946348E-01 0.47150638E+03</pdfrwt>
<pdfrwt beam="2">  1       21 0.43010278E-01 0.47150638E+03</pdfrwt>
<totfact> 0.58473179E+04</totfact>
</mgrwt>
</event>
<event>
 7    0  0.4709932E-002  0.4607691E+03  0.7546771E-02  0.1024558E+00
         21   -1    0    0  502  501  0.00000000000E+00  0.00000000000E+00  0.16722314359E+03  0.16722314359E+03  0.00000000000E+00 0. -1.
         21   -1    0    0  501  502 -0.00000000000E+00 -0.00000000000E+00 -0.31740253088E+03  0.31740253088E+03  0.00000000000E+00 0. -1.
      99926    2    1    2    0    0  0.00000000000E+00  0.14210854715E-13 -0.15017938730E+03  0.48462567447E+03  0.46076913523E+03 0.  0.
      99925    2    3    3    0    0  0.78906556631E+02 -0.87561108263E+02 -0.11112984167E+03  0.30837140509E+03  0.26239262453E+03 0.  0.
         25    1    4    4    0    0  0.44871611411E+02 -0.76851519114E+02 -0.85743533120E+02  0.17583821846E+03  0.12509000000E+03 0.  0.
         25    1    4    4    0    0  0.34034945220E+02 -0.10709589149E+02 -0.25386308549E+02  0.13253318663E+03  0.12509000000E+03 0.  0.
         25    1    3    3    0    0 -0.78906556631E+02  0.87561108263E+02 -0.39049545629E+02  0.17625426938E+03  0.12509000000E+03 0.  0.
<mgrwt>
<rscale>  2 0.46076914E+03</rscale>
<asrwt>0</asrwt>
<pdfrwt beam="1">  1       21 0.24591639E-01 0.46076914E+03</pdfrwt>
<pdfrwt beam="2">  1       21 0.46676842E-01 0.46076914E+03</pdfrwt>
<totfact> 0.63410939E+04</totfact>
</mgrwt>
</event>
<event>
 7    0  0.4709932E-002  0.4524968E+03  0.7546771E-02  0.1026980E+00
         21   -1    0    0  502  501  0.00000000000E+00  0.00000000000E+00  0.18121061836E+04  0.18121061836E+04  0.00000000000E+00 0.  1.
         21   -1    0    0  501  502 -0.00000000000E+00 -0.00000000000E+00 -0.28247982505E+02  0.28247982505E+02  0.00000000000E+00 0.  1.
      99926    2    1    2    0    0  0.00000000000E+00 -0.35527136788E-14  0.17838582011E+04  0.18403541661E+04  0.45249682328E+03 0.  0.
      99925    2    3    3    0    0 -0.24813961728E+02  0.24273976725E+02  0.15530493551E+04  0.15755425536E+04  0.26299634995E+03 0.  0.
         25    1    4    4    0    0 -0.26395765067E+02  0.34310097886E+02  0.98085539288E+03  0.98974680049E+03  0.12509000000E+03 0.  0.
         25    1    4    4    0    0  0.15818033398E+01 -0.10036121161E+02  0.57219396221E+03  0.58579575307E+03  0.12509000000E+03 0.  0.
         25    1    3    3    0    0  0.24813961728E+02 -0.24273976725E+02  0.23080884598E+03  0.26481161252E+03  0.12509000000E+03 0.  0.
<mgrwt>
<rscale>  2 0.45249682E+03</rscale>
<asrwt>0</asrwt>
<pdfrwt beam="1">  1       21 0.26648612E+00 0.45249682E+03</pdfrwt>
<pdfrwt beam="2">  1       21 0.41541163E-02 0.45249682E+03</pdfrwt>
<totfact> 0.16820826E+04</totfact>
</mgrwt>
</event>
<event>
 7    0  0.4709932E-002  0.4622798E+03  0.7546771E-02  0.1024122E+00
         21   -1    0    0  502  501  0.00000000000E+00  0.00000000000E+00  0.13548149539E+03  0.13548149539E+03  0.00000000000E+00 0. -1.
         21   -1    0    0  501  502 -0.00000000000E+00 -0.00000000000E+00 -0.39433918735E+03  0.39433918735E+03  0.00000000000E+00 0. -1.
      99926    2    1    2    0    0  0.14210854715E-13  0.00000000000E+00 -0.25885769196E+03  0.52982068273E+03  0.46227984075E+03 0.  0.
      99925    2    3    3    0    0  0.75003183846E+02  0.90916265549E+02 -0.13773833666E+03  0.31956214841E+03  0.26316700474E+03 0.  0.
         25    1    4    4    0    0  0.73346922321E+02  0.39078206639E+02 -0.50347904277E+02  0.15839601262E+03  0.12509000000E+03 0.  0.
         25    1    4    4    0    0  0.16562615254E+01  0.51838058910E+02 -0.87390432384E+02  0.16116613579E+03  0.12509000000E+03 0.  0.
         25    1    3    3    0    0 -0.75003183846E+02 -0.90916265549E+02 -0.12111935530E+03  0.21025853432E+03  0.12509000000E+03 0.  0.
<mgrwt>
<rscale>  2 0.46227984E+03</rscale>
<asrwt>0</asrwt>
<pdfrwt beam="1">  1       21 0.19923750E-01 0.46227984E+03</pdfrwt>
<pdfrwt beam="2">  1       21 0.57991055E-01 0.46227984E+03</pdfrwt>
<totfact> 0.59698483E+04</totfact>
</mgrwt>
</event>
<event>
 6    0  0.4709932E-002  0.4365641E+03  0.7546771E-02  0.1031806E+00
         21   -1    0    0  502  501  0.00000000000E+00  0.00000000000E+00  0.10413115548E+03  0.10413115548E+03  0.00000000000E+00 0. -1.
         21   -1    0    0  501  502 -0.00000000000E+00 -0.00000000000E+00 -0.45756774031E+03  0.45756774031E+03  0.00000000000E+00 0. -1.
      99926    2    1    2    0    0 -0.88817841970E-15  0.17763568394E-14 -0.35343658482E+03  0.56169889579E+03  0.43656411905E+03 0.  0.
         25    1    3    3    0    0 -0.84656634977E+01 -0.44626710686E+02 -0.81470373117E+02  0.15603890720E+03  0.12509000000E+03 0.  0.
         25    1    3    3    0    0  0.39052971496E+01  0.31719937717E+02 -0.29426084282E+02  0.13241906332E+03  0.12509000000E+03 0.  0.
         25    1    3    3    0    0  0.45603663481E+01  0.12906772969E+02 -0.24254012742E+03  0.27324092527E+03  0.12509000000E+03 0.  0.
<mgrwt>
<rscale>  2 0.43656412E+03</rscale>
<asrwt>0</asrwt>
<pdfrwt beam="1">  1       21 0.15313405E-01 0.43656412E+03</pdfrwt>
<pdfrwt beam="2">  1       21 0.67289373E-01 0.43656412E+03</pdfrwt>
<totfact> 0.70884204E+04</totfact>
</mgrwt>
</event>
<event>
 7    0  0.4709932E-002  0.4386327E+03  0.7546771E-02  0.1031167E+00
         21   -1    0    0  502  501  0.00000000000E+00  0.00000000000E+00  0.12038769748E+03  0.12038769748E+03  0.00000000000E+00 0.  1.
         21   -1    0    0  501  502 -0.00000000000E+00 -0.00000000000E+00 -0.39953962165E+03  0.39953962165E+03  0.00000000000E+00 0.  1.
      99926    2    1    2    0    0 -0.14210854715E-13  0.00000000000E+00 -0.27915192418E+03  0.51992731913E+03  0.43863267139E+03 0.  0.
      99925    2    3    3    0    0  0.79790705845E+02 -0.54095261330E+02 -0.19062470407E+03  0.33888193577E+03  0.26307857106E+03 0.  0.
         25    1    3    3    0    0 -0.79790705845E+02  0.54095261330E+02 -0.88527220104E+02  0.18104538336E+03  0.12509000000E+03 0.  0.
         25    1    4    4    0    0  0.70054263846E+02 -0.55708473847E+02 -0.91478808534E+02  0.17896065057E+03  0.12509000000E+03 0.  0.
         25    1    4    4    0    0  0.97364419992E+01  0.16132125170E+01 -0.99145895538E+02  0.15992128520E+03  0.12509000000E+03 0.  0.
<mgrwt>
<rscale>  2 0.43863267E+03</rscale>
<asrwt>0</asrwt>
<pdfrwt beam="1">  1       21 0.17704073E-01 0.43863267E+03</pdfrwt>
<pdfrwt beam="2">  1       21 0.58755826E-01 0.43863267E+03</pdfrwt>
<totfact> 0.72895996E+04</totfact>
</mgrwt>
</event>
<event>
 7    0  0.4709932E-002  0.4558035E+03  0.7546771E-02  0.1026005E+00
         21   -1    0    0  502  501  0.00000000000E+00  0.00000000000E+00  0.30085288550E+03  0.30085288550E+03  0.00000000000E+00 0.  1.
         21   -1    0    0  501  502 -0.00000000000E+00 -0.00000000000E+00 -0.17263991971E+03  0.17263991971E+03  0.00000000000E+00 0.  1.
      99926    2    1    2    0    0  0.00000000000E+00 -0.14210854715E-13  0.12821296579E+03  0.47349280521E+03  0.45580354539E+03 0.  0.
      99925    2    3    3    0    0 -0.65836200534E+02  0.87349392168E+02  0.11380094532E+03  0.30670091078E+03  0.26296477313E+03 0.  0.
         25    1    4    4    0    0 -0.52498147613E+02  0.64978882009E+02  0.28564584574E+02  0.15310700246E+03  0.12509000000E+03 0.  0.
         25    1    3    3    0    0  0.65836200534E+02 -0.87349392168E+02  0.14412020470E+02  0.16679189443E+03  0.12509000000E+03 0.  0.
         25    1    4    4    0    0 -0.13338052921E+02  0.22370510158E+02  0.85236360744E+02  0.15359390832E+03  0.12509000000E+03 0.  0.
<mgrwt>
<rscale>  2 0.45580355E+03</rscale>
<asrwt>0</asrwt>
<pdfrwt beam="1">  1       21 0.44243072E-01 0.45580355E+03</pdfrwt>
<pdfrwt beam="2">  1       21 0.25388223E-01 0.45580355E+03</pdfrwt>
<totfact> 0.66750329E+04</totfact>
</mgrwt>
</event>
<event>
 7    0  0.4709932E-002  0.4455948E+03  0.7546771E-02  0.1029044E+00
         21   -1    0    0  502  501  0.00000000000E+00  0.00000000000E+00  0.12754221330E+03  0.12754221330E+03  0.00000000000E+00 0. -1.
         21   -1    0    0  501  502 -0.00000000000E+00 -0.00000000000E+00 -0.38919410175E+03  0.38919410175E+03  0.00000000000E+00 0. -1.
      99926    2    1    2    0    0  0.35527136788E-14  0.00000000000E+00 -0.26165188845E+03  0.51673631506E+03  0.44559478068E+03 0.  0.
      99925    2    3    3    0    0 -0.25443107336E+02 -0.61710034895E+02 -0.73375093507E+02  0.28104342222E+03  0.26295630951E+03 0.  0.
         25    1    3    3    0    0  0.25443107336E+02  0.61710034895E+02 -0.18827679494E+03  0.23569289283E+03  0.12509000000E+03 0.  0.
         25    1    4    4    0    0 -0.15262551827E+02  0.95676727825E+01 -0.43458939809E+02  0.13364383039E+03  0.12509000000E+03 0.  0.
         25    1    4    4    0    0 -0.10180555509E+02 -0.71277707678E+02 -0.29916153698E+02  0.14739959184E+03  0.12509000000E+03 0.  0.
<mgrwt>
<rscale>  2 0.44559478E+03</rscale>
<asrwt>0</asrwt>
<pdfrwt beam="1">  1       21 0.18756208E-01 0.44559478E+03</pdfrwt>
<pdfrwt beam="2">  1       21 0.57234426E-01 0.44559478E+03</pdfrwt>
<totfact> 0.69125545E+04</totfact>
</mgrwt>
</event>
<event>
 7    0  0.4709932E-002  0.4494708E+03  0.7546771E-02  0.1027880E+00
         21   -1    0    0  502  501  0.00000000000E+00  0.00000000000E+00  0.19203112657E+03  0.19203112657E+03  0.00000000000E+00 0.  1.
         21   -1    0    0  501  502 -0.00000000000E+00 -0.00000000000E+00 -0.26300943951E+03  0.26300943951E+03  0.00000000000E+00 0.  1.
      99926    2    1    2    0    0 -0.14210854715E-13  0.00000000000E+00 -0.70978312936E+02  0.45504056608E+03  0.44947079534E+03 0.  0.
      99925    2    3    3    0    0 -0.66644104988E+02 -0.64097736096E+02  0.11399490887E+02  0.27901906976E+03  0.26300520222E+03 0.  0.
         25    1    4    4    0    0 -0.11268165076E+02 -0.64466128874E+02 -0.48468540681E+01  0.14125810919E+03  0.12509000000E+03 0.  0.
         25    1    4    4    0    0 -0.55375939912E+02  0.36839277802E+00  0.16246344955E+02  0.13776096058E+03  0.12509000000E+03 0.  0.
         25    1    3    3    0    0  0.66644104988E+02  0.64097736096E+02 -0.82377803823E+02  0.17602149631E+03  0.12509000000E+03 0.  0.
<mgrwt>
<rscale>  2 0.44947080E+03</rscale>
<asrwt>0</asrwt>
<pdfrwt beam="1">  1       21 0.28239872E-01 0.44947080E+03</pdfrwt>
<pdfrwt beam="2">  1       21 0.38677859E-01 0.44947080E+03</pdfrwt>
<totfact> 0.71651061E+04</totfact>
</mgrwt>
</event>
<event>
 7    0  0.4709932E-002  0.4529663E+03  0.7546771E-02  0.1026841E+00
         21   -1    0    0  502  501  0.00000000000E+00  0.00000000000E+00  0.49774643895E+03  0.49774643895E+03  0.00000000000E+00 0.  1.
         21   -1    0    0  501  502 -0.00000000000E+00 -0.00000000000E+00 -0.10305371841E+03  0.10305371841E+03  0.00000000000E+00 0.  1.
      99926    2    1    2    0    0 -0.35527136788E-14 -0.71054273576E-14  0.39469272054E+03  0.60080015736E+03  0.45296631821E+03 0.  0.
      99925    2    3    3    0    0 -0.24234650442E+02  0.45336141845E+02  0.11711920249E+03  0.29203285005E+03  0.26253303388E+03 0.  0.
         25    1    4    4    0    0 -0.32742916706E+01 -0.81337767104E+00  0.90582117153E+02  0.15447980650E+03  0.12509000000E+03 0.  0.
         25    1    3    3    0    0  0.24234650442E+02 -0.45336141845E+02  0.27757351805E+03  0.30876730731E+03  0.12509000000E+03 0.  0.
         25    1    4    4    0    0 -0.20960358772E+02  0.46149519516E+02  0.26537085338E+02  0.13755304355E+03  0.12509000000E+03 0.  0.
<mgrwt>
<rscale>  2 0.45296632E+03</rscale>
<asrwt>0</asrwt>
<pdfrwt beam="1">  1       21 0.73198005E-01 0.45296632E+03</pdfrwt>
<pdfrwt beam="2">  1       21 0.15154959E-01 0.45296632E+03</pdfrwt>
<totfact> 0.59580635E+04</totfact>
</mgrwt>
</event>
<event>
 7    0  0.4709932E-002  0.4517662E+03  0.7546771E-02  0.1027197E+00
         21   -1    0    0  502  501  0.00000000000E+00  0.00000000000E+00  0.35789159138E+03  0.35789159138E+03  0.00000000000E+00 0. -1.
         21   -1    0    0  501  502 -0.00000000000E+00 -0.00000000000E+00 -0.14256601837E+03  0.14256601837E+03  0.00000000000E+00 0. -1.
      99926    2    1    2    0    0  0.35527136788E-14  0.00000000000E+00  0.21532557301E+03  0.50045760975E+03  0.45176621915E+03 0.  0.
      99925    2    3    3    0    0 -0.26143704828E+02 -0.56757610636E+02  0.34337994908E+02  0.27174615137E+03  0.26222500496E+03 0.  0.
         25    1    4    4    0    0  0.49122004002E+01  0.44015604484E+01  0.11236813622E+01  0.12526880780E+03  0.12509000000E+03 0.  0.
         25    1    4    4    0    0 -0.31055905228E+02 -0.61159171084E+02  0.33214313545E+02  0.14647734358E+03  0.12509000000E+03 0.  0.
         25    1    3    3    0    0  0.26143704828E+02  0.56757610636E+02  0.18098757810E+03  0.22871145838E+03  0.12509000000E+03 0.  0.
<mgrwt>
<rscale>  2 0.45176622E+03</rscale>
<asrwt>0</asrwt>
<pdfrwt beam="1">  1       21 0.52631116E-01 0.45176622E+03</pdfrwt>
<pdfrwt beam="2">  1       21 0.20965591E-01 0.45176622E+03</pdfrwt>
<totfact> 0.66940378E+04</totfact>
</mgrwt>
</event>
<event>
 7    0  0.4709932E-002  0.4562173E+03  0.7546771E-02  0.1025884E+00
         21   -1    0    0  502  501  0.00000000000E+00  0.00000000000E+00  0.23262226232E+03  0.23262226232E+03  0.00000000000E+00 0. -1.
         21   -1    0    0  501  502 -0.00000000000E+00 -0.00000000000E+00 -0.22368261690E+03  0.22368261690E+03  0.00000000000E+00 0. -1.
      99926    2    1    2    0    0  0.00000000000E+00  0.35527136788E-14  0.89396454143E+01  0.45630487922E+03  0.45621730079E+03 0.  0.
      99925    2    3    3    0    0  0.11071381003E+03  0.27512856490E+02 -0.89884260749E+00  0.28672065545E+03  0.26304642431E+03 0.  0.
         25    1    3    3    0    0 -0.11071381003E+03 -0.27512856490E+02  0.98384880218E+01  0.16958422376E+03  0.12509000000E+03 0.  0.
         25    1    4    4    0    0  0.88666273032E+02 -0.44406834022E+01 -0.18753523330E+02  0.15453358981E+03  0.12509000000E+03 0.  0.
         25    1    4    4    0    0  0.22047536996E+02  0.31953539892E+02  0.17854680723E+02  0.13218706564E+03  0.12509000000E+03 0.  0.
<mgrwt>
<rscale>  2 0.45621730E+03</rscale>
<asrwt>0</asrwt>
<pdfrwt beam="1">  1       21 0.34209156E-01 0.45621730E+03</pdfrwt>
<pdfrwt beam="2">  1       21 0.32894502E-01 0.45621730E+03</pdfrwt>
<totfact> 0.67789486E+04</totfact>
</mgrwt>
</event>
<event>
 7    0  0.4709932E-002  0.4539519E+03  0.7546771E-02  0.1026550E+00
         21   -1    0    0  502  501  0.00000000000E+00  0.00000000000E+00  0.14044609035E+02  0.14044609035E+02  0.00000000000E+00 0. -1.
         21   -1    0    0  501  502 -0.00000000000E+00 -0.00000000000E+00 -0.36681756338E+04  0.36681756338E+04  0.00000000000E+00 0. -1.
      99926    2    1    2    0    0  0.00000000000E+00  0.00000000000E+00 -0.36541310248E+04  0.36822202428E+04  0.45395194744E+03 0.  0.
      99925    2    3    3    0    0  0.92178840901E+02 -0.94471282153E+01 -0.17910935391E+04  0.18126902569E+04  0.26314200534E+03 0.  0.
         25    1    4    4    0    0  0.48276339074E+01  0.45638001635E+01 -0.86004040368E+03  0.86911514680E+03  0.12509000000E+03 0.  0.
         25    1    3    3    0    0 -0.92178840901E+02  0.94471282153E+01 -0.18630374857E+04  0.18695299859E+04  0.12509000000E+03 0.  0.
         25    1    4    4    0    0  0.87351206993E+02 -0.14010928379E+02 -0.93105313538E+03  0.94357511014E+03  0.12509000000E+03 0.  0.
<mgrwt>
<rscale>  2 0.45395195E+03</rscale>
<asrwt>0</asrwt>
<pdfrwt beam="1">  1       21 0.20653839E-02 0.45395195E+03</pdfrwt>
<pdfrwt beam="2">  1       21 0.53943753E+00 0.45395195E+03</pdfrwt>
<totfact> 0.89818503E+02</totfact>
</mgrwt>
</event>
<event>
 7    0  0.4709932E-002  0.4591669E+03  0.7546771E-02  0.1025023E+00
         21   -1    0    0  502  501  0.00000000000E+00  0.00000000000E+00  0.50027368555E+03  0.50027368555E+03  0.00000000000E+00 0.  1.
         21   -1    0    0  501  502 -0.00000000000E+00 -0.00000000000E+00 -0.10535943500E+03  0.10535943500E+03  0.00000000000E+00 0.  1.
      99926    2    1    2    0    0  0.00000000000E+00  0.00000000000E+00  0.39491425055E+03  0.60563312055E+03  0.45916686665E+03 0.  0.
      99925    2    3    3    0    0  0.10337395340E+03 -0.24335116849E+02  0.18286857430E+03  0.33751141486E+03  0.26304879307E+03 0.  0.
         25    1    4    4    0    0  0.92979372161E+02 -0.12916416525E+02  0.11686494008E+03  0.19523554949E+03  0.12509000000E+03 0.  0.
         25    1    3    3    0    0 -0.10337395340E+03  0.24335116849E+02  0.21204567624E+03  0.26812170570E+03  0.12509000000E+03 0.  0.
         25    1    4    4    0    0  0.10394581237E+02 -0.11418700324E+02  0.66003634220E+02  0.14227586537E+03  0.12509000000E+03 0.  0.
<mgrwt>
<rscale>  2 0.45916687E+03</rscale>
<asrwt>0</asrwt>
<pdfrwt beam="1">  1       21 0.73569659E-01 0.45916687E+03</pdfrwt>
<pdfrwt beam="2">  1       21 0.15494035E-01 0.45916687E+03</pdfrwt>
<totfact> 0.56451477E+04</totfact>
</mgrwt>
</event>
<event>
 6    0  0.4709932E-002  0.4473194E+03  0.7546771E-02  0.1028524E+00
         21   -1    0    0  502  501  0.00000000000E+00  0.00000000000E+00  0.52354623179E+02  0.52354623179E+02  0.00000000000E+00 0.  1.
         21   -1    0    0  501  502 -0.00000000000E+00 -0.00000000000E+00 -0.95547752461E+03  0.95547752461E+03  0.00000000000E+00 0.  1.
      99926    2    1    2    0    0  0.00000000000E+00  0.00000000000E+00 -0.90312290143E+03  0.10078321478E+04  0.44731941946E+03 0.  0.
         25    1    3    3    0    0 -0.68758958772E+02 -0.28606510409E+01 -0.17149869896E+03  0.22314858185E+03  0.12509000000E+03 0.  0.
         25    1    3    3    0    0  0.91734139514E+02 -0.11736277133E+02 -0.40953552204E+03  0.43808645775E+03  0.12509000000E+03 0.  0.
         25    1    3    3    0    0 -0.22975180742E+02  0.14596928173E+02 -0.32208868043E+03  0.34659710819E+03  0.12509000000E+03 0.  0.
<mgrwt>
<rscale>  2 0.44731942E+03</rscale>
<asrwt>0</asrwt>
<pdfrwt beam="1">  1       21 0.76992103E-02 0.44731942E+03</pdfrwt>
<pdfrwt beam="2">  1       21 0.14051138E+00 0.44731942E+03</pdfrwt>
<totfact> 0.41284631E+04</totfact>
</mgrwt>
</event>
<event>
 7    0  0.4709932E-002  0.4492068E+03  0.7546771E-02  0.1027959E+00
         21   -1    0    0  502  501  0.00000000000E+00  0.00000000000E+00  0.27770031674E+04  0.27770031674E+04  0.00000000000E+00 0. -1.
         21   -1    0    0  501  502 -0.00000000000E+00 -0.00000000000E+00 -0.18165870066E+02  0.18165870066E+02  0.00000000000E+00 0. -1.
      99926    2    1    2    0    0 -0.28421709430E-13 -0.35527136788E-14  0.27588372973E+04  0.27951690375E+04  0.44920676180E+03 0.  0.
      99925    2    3    3    0    0  0.93120913343E+02  0.25280757304E+02  0.14475372524E+04  0.14743867174E+04  0.26294766403E+03 0.  0.
         25    1    4    4    0    0  0.83289530443E+02  0.18314018334E+02  0.68183422304E+03  0.69843966451E+03  0.12509000000E+03 0.  0.
         25    1    3    3    0    0 -0.93120913343E+02 -0.25280757304E+02  0.13113000449E+04  0.13207823201E+04  0.12509000000E+03 0.  0.
         25    1    4    4    0    0  0.98313829007E+01  0.69667389702E+01  0.76570302938E+03  0.77594705286E+03  0.12509000000E+03 0.  0.
<mgrwt>
<rscale>  2 0.44920676E+03</rscale>
<asrwt>0</asrwt>
<pdfrwt beam="1">  1       21 0.40838253E+00 0.44920676E+03</pdfrwt>
<pdfrwt beam="2">  1       21 0.26714534E-02 0.44920676E+03</pdfrwt>
<totfact> 0.47701825E+03</totfact>
</mgrwt>
</event>
<event>
 7    0  0.4709932E-002  0.4508397E+03  0.7546771E-02  0.1027472E+00
         21   -1    0    0  502  501  0.00000000000E+00  0.00000000000E+00  0.12130387307E+03  0.12130387307E+03  0.00000000000E+00 0. -1.
         21   -1    0    0  501  502 -0.00000000000E+00 -0.00000000000E+00 -0.41889928265E+03  0.41889928265E+03  0.00000000000E+00 0. -1.
      99926    2    1    2    0    0  0.35527136788E-14  0.00000000000E+00 -0.29759540958E+03  0.54020315572E+03  0.45083968508E+03 0.  0.
      99925    2    3    3    0    0  0.10436763022E+02 -0.77428959945E+02 -0.27943758826E+03  0.39160509235E+03  0.26299241959E+03 0.  0.
         25    1    4    4    0    0 -0.20307596222E+02 -0.55438557669E+02 -0.10506328207E+03  0.17369983730E+03  0.12509000000E+03 0.  0.
         25    1    4    4    0    0  0.30744359244E+02 -0.21990402276E+02 -0.17437430619E+03  0.21790525505E+03  0.12509000000E+03 0.  0.
         25    1    3    3    0    0 -0.10436763022E+02  0.77428959945E+02 -0.18157821319E+02  0.14859806336E+03  0.12509000000E+03 0.  0.
<mgrwt>
<rscale>  2 0.45083969E+03</rscale>
<asrwt>0</asrwt>
<pdfrwt beam="1">  1       21 0.17838805E-01 0.45083969E+03</pdfrwt>
<pdfrwt beam="2">  1       21 0.61602835E-01 0.45083969E+03</pdfrwt>
<totfact> 0.64619985E+04</totfact>
</mgrwt>
</event>
<event>
 7    0  0.4709932E-002  0.4445470E+03  0.7546771E-02  0.1029361E+00
         21   -1    0    0  502  501  0.00000000000E+00  0.00000000000E+00  0.11544535555E+03  0.11544535555E+03  0.00000000000E+00 0. -1.
         21   -1    0    0  501  502 -0.00000000000E+00 -0.00000000000E+00 -0.42795582649E+03  0.42795582649E+03  0.00000000000E+00 0. -1.
      99926    2    1    2    0    0  0.00000000000E+00 -0.71054273576E-14 -0.31251047095E+03  0.54340118204E+03  0.44454701686E+03 0.  0.
      99925    2    3    3    0    0  0.49430896478E+02  0.40890218772E+02 -0.99842542320E+02  0.28846868219E+03  0.26292627071E+03 0.  0.
         25    1    4    4    0    0  0.39149487434E+02  0.51735065962E+02 -0.28759566611E+02  0.14381870597E+03  0.12509000000E+03 0.  0.
         25    1    3    3    0    0 -0.49430896478E+02 -0.40890218772E+02 -0.21266792863E+03  0.25493249986E+03  0.12509000000E+03 0.  0.
         25    1    4    4    0    0  0.10281409044E+02 -0.10844847190E+02 -0.71082975709E+02  0.14464997621E+03  0.12509000000E+03 0.  0.
<mgrwt>
<rscale>  2 0.44454702E+03</rscale>
<asrwt>0</asrwt>
<pdfrwt beam="1">  1       21 0.16977259E-01 0.44454702E+03</pdfrwt>
<pdfrwt beam="2">  1       21 0.62934679E-01 0.44454702E+03</pdfrwt>
<totfact> 0.67736043E+04</totfact>
</mgrwt>
</event>
<event>
 7    0  0.4709932E-002  0.4532865E+03  0.7546771E-02  0.1026746E+00
         21   -1    0    0  502  501  0.00000000000E+00  0.00000000000E+00  0.10718044587E+04  0.10718044587E+04  0.00000000000E+00 0.  1.
         21   -1    0    0  501  502 -0.00000000000E+00 -0.00000000000E+00 -0.47925866824E+02  0.47925866824E+02  0.00000000000E+00 0.  1.
      99926    2    1    2    0    0 -0.14210854715E-13  0.00000000000E+00  0.10238785919E+04  0.11197303255E+04  0.45328647784E+03 0.  0.
      99925    2    3    3    0    0 -0.95134179307E+02 -0.39947704343E+02  0.75035206745E+03  0.80175139726E+03  0.26292726509E+03 0.  0.
         25    1    3    3    0    0  0.95134179307E+02  0.39947704343E+02  0.27352652441E+03  0.31797892825E+03  0.12509000000E+03 0.  0.
         25    1    4    4    0    0 -0.85036045729E+02 -0.38891364002E+02  0.44522101488E+03  0.47181874429E+03  0.12509000000E+03 0.  0.
         25    1    4    4    0    0 -0.10098133579E+02 -0.10563403410E+01  0.30513105257E+03  0.32993265298E+03  0.12509000000E+03 0.  0.
<mgrwt>
<rscale>  2 0.45328648E+03</rscale>
<asrwt>0</asrwt>
<pdfrwt beam="1">  1       21 0.15761829E+00 0.45328648E+03</pdfrwt>
<pdfrwt beam="2">  1       21 0.70479223E-02 0.45328648E+03</pdfrwt>
<totfact> 0.35278140E+04</totfact>
</mgrwt>
</event>
<event>
 7    0  0.4709932E-002  0.4483383E+03  0.7546771E-02  0.1028219E+00
         21   -1    0    0  502  501  0.00000000000E+00  0.00000000000E+00  0.71324253683E+02  0.71324253683E+02  0.00000000000E+00 0. -1.
         21   -1    0    0  501  502 -0.00000000000E+00 -0.00000000000E+00 -0.70455428335E+03  0.70455428335E+03  0.00000000000E+00 0. -1.
      99926    2    1    2    0    0  0.71054273576E-14  0.00000000000E+00 -0.63323002966E+03  0.77587853703E+03  0.44833830280E+03 0.  0.
      99925    2    3    3    0    0 -0.51924733259E+02 -0.89795925201E+02 -0.35667357651E+03  0.45511309938E+03  0.26296845237E+03 0.  0.
         25    1    4    4    0    0 -0.62563304066E+02 -0.62868107635E+02 -0.21255870299E+03  0.26209783725E+03  0.12509000000E+03 0.  0.
         25    1    3    3    0    0  0.51924733259E+02  0.89795925201E+02 -0.27655645316E+03  0.32076543765E+03  0.12509000000E+03 0.  0.
         25    1    4    4    0    0  0.10638570807E+02 -0.26927817567E+02 -0.14411487352E+03  0.19301526214E+03  0.12509000000E+03 0.  0.
<mgrwt>
<rscale>  2 0.44833830E+03</rscale>
<asrwt>0</asrwt>
<pdfrwt beam="1">  1       21 0.10488861E-01 0.44833830E+03</pdfrwt>
<pdfrwt beam="2">  1       21 0.10361092E+00 0.44833830E+03</pdfrwt>
<totfact> 0.51599481E+04</totfact>
</mgrwt>
</event>
<event>
 7    0  0.4709932E-002  0.4516002E+03  0.7546771E-02  0.1027246E+00
         21   -1    0    0  502  501  0.00000000000E+00  0.00000000000E+00  0.13561813243E+03  0.13561813243E+03  0.00000000000E+00 0. -1.
         21   -1    0    0  501  502 -0.00000000000E+00 -0.00000000000E+00 -0.37595027507E+03  0.37595027507E+03  0.00000000000E+00 0. -1.
      99926    2    1    2    0    0  0.00000000000E+00  0.35527136788E-14 -0.24033214263E+03  0.51156840750E+03  0.45160015143E+03 0.  0.
      99925    2    3    3    0    0  0.75549744247E+02 -0.21439821319E+02 -0.65058522056E+02  0.28236155777E+03  0.26330212346E+03 0.  0.
         25    1    4    4    0    0  0.31793850705E+02 -0.32570111107E+02  0.26269001279E+01  0.13313928716E+03  0.12509000000E+03 0.  0.
         25    1    3    3    0    0 -0.75549744247E+02  0.21439821319E+02 -0.17527362058E+03  0.22920684973E+03  0.12509000000E+03 0.  0.
         25    1    4    4    0    0  0.43755893542E+02  0.11130289788E+02 -0.67685422184E+02  0.14922227061E+03  0.12509000000E+03 0.  0.
<mgrwt>
<rscale>  2 0.45160015E+03</rscale>
<asrwt>0</asrwt>
<pdfrwt beam="1">  1       21 0.19943843E-01 0.45160015E+03</pdfrwt>
<pdfrwt beam="2">  1       21 0.55286805E-01 0.45160015E+03</pdfrwt>
<totfact> 0.66234351E+04</totfact>
</mgrwt>
</event>
<event>
 7    0  0.4709932E-002  0.4530840E+03  0.7546771E-02  0.1026806E+00
         21   -1    0    0  502  501  0.00000000000E+00  0.00000000000E+00  0.18047389011E+04  0.18047389011E+04  0.00000000000E+00 0.  1.
         21   -1    0    0  501  502 -0.00000000000E+00 -0.00000000000E+00 -0.28436956065E+02  0.28436956065E+02  0.00000000000E+00 0.  1.
      99926    2    1    2    0    0 -0.17763568394E-14  0.00000000000E+00  0.17763019450E+04  0.18331758572E+04  0.45308401358E+03 0.  0.
      99925    2    3    3    0    0  0.11330486262E+02 -0.10387254024E+03  0.12754247207E+04  0.13064469074E+04  0.26301600563E+03 0.  0.
         25    1    4    4    0    0 -0.25541358695E+02 -0.76212112601E+02  0.61715656119E+03  0.63481522999E+03  0.12509000000E+03 0.  0.
         25    1    3    3    0    0 -0.11330486262E+02  0.10387254024E+03  0.50087722431E+03  0.52672894972E+03  0.12509000000E+03 0.  0.
         25    1    4    4    0    0  0.36871844956E+02 -0.27660427638E+02  0.65826815953E+03  0.67163167746E+03  0.12509000000E+03 0.  0.
<mgrwt>
<rscale>  2 0.45308401E+03</rscale>
<asrwt>0</asrwt>
<pdfrwt beam="1">  1       21 0.26540270E+00 0.45308401E+03</pdfrwt>
<pdfrwt beam="2">  1       21 0.41819065E-02 0.45308401E+03</pdfrwt>
<totfact> 0.16880210E+04</totfact>
</mgrwt>
</event>
<event>
 7    0  0.4709932E-002  0.3936629E+03  0.7546771E-02  0.1045996E+00
         21   -1    0    0  502  501  0.00000000000E+00  0.00000000000E+00  0.72258934162E+02  0.72258934162E+02  0.00000000000E+00 0. -1.
         21   -1    0    0  501  502 -0.00000000000E+00 -0.00000000000E+00 -0.53616364664E+03  0.53616364664E+03  0.00000000000E+00 0. -1.
      99926    2    1    2    0    0 -0.17763568394E-14  0.00000000000E+00 -0.46390471248E+03  0.60842258081E+03  0.39366286918E+03 0.  0.
      99925    2    3    3    0    0  0.12961701927E+02  0.27941643691E+02 -0.31921528498E+03  0.41469266649E+03  0.26291228254E+03 0.  0.
         25    1    3    3    0    0 -0.12961701927E+02 -0.27941643691E+02 -0.14468942750E+03  0.19372991432E+03  0.12509000000E+03 0.  0.
         25    1    4    4    0    0 -0.69714361311E+01  0.80008036406E+00 -0.10102370224E+03  0.16094265303E+03  0.12509000000E+03 0.  0.
         25    1    4    4    0    0  0.19933138058E+02  0.27141563327E+02 -0.21819158274E+03  0.25375001346E+03  0.12509000000E+03 0.  0.
<mgrwt>
<rscale>  2 0.39366287E+03</rscale>
<asrwt>0</asrwt>
<pdfrwt beam="1">  1       21 0.10626314E-01 0.39366287E+03</pdfrwt>
<pdfrwt beam="2">  1       21 0.78847592E-01 0.39366287E+03</pdfrwt>
<totfact> 0.97455502E+04</totfact>
</mgrwt>
</event>
<event>
 7    0  0.4709932E-002  0.4575414E+03  0.7546771E-02  0.1025497E+00
         21   -1    0    0  502  501  0.00000000000E+00  0.00000000000E+00  0.87882057137E+02  0.87882057137E+02  0.00000000000E+00 0. -1.
         21   -1    0    0  501  502 -0.00000000000E+00 -0.00000000000E+00 -0.59552582459E+03  0.59552582459E+03  0.00000000000E+00 0. -1.
      99926    2    1    2    0    0  0.14210854715E-13  0.00000000000E+00 -0.50764376746E+03  0.68340788173E+03  0.45754140597E+03 0.  0.
      99925    2    3    3    0    0 -0.83711804305E+02 -0.38809706910E+02 -0.21563842454E+03  0.35260811159E+03  0.26328442926E+03 0.  0.
         25    1    4    4    0    0 -0.52353592120E+02 -0.36606889047E+02 -0.15779261949E+03  0.21125099242E+03  0.12509000000E+03 0.  0.
         25    1    3    3    0    0  0.83711804305E+02  0.38809706910E+02 -0.29200534292E+03  0.33079977014E+03  0.12509000000E+03 0.  0.
         25    1    4    4    0    0 -0.31358212185E+02 -0.22028178628E+01 -0.57845805045E+02  0.14135711917E+03  0.12509000000E+03 0.  0.
<mgrwt>
<rscale>  2 0.45754141E+03</rscale>
<asrwt>0</asrwt>
<pdfrwt beam="1">  1       21 0.12923832E-01 0.45754141E+03</pdfrwt>
<pdfrwt beam="2">  1       21 0.87577325E-01 0.45754141E+03</pdfrwt>
<totfact> 0.52749870E+04</totfact>
</mgrwt>
</event>
<event>
 7    0  0.4709932E-002  0.4535225E+03  0.7546771E-02  0.1026677E+00
         21   -1    0    0  502  501  0.00000000000E+00  0.00000000000E+00  0.22863658046E+03  0.22863658046E+03  0.00000000000E+00 0.  1.
         21   -1    0    0  501  502 -0.00000000000E+00 -0.00000000000E+00 -0.22490127222E+03  0.22490127222E+03  0.00000000000E+00 0.  1.
      99926    2    1    2    0    0  0.00000000000E+00  0.00000000000E+00  0.37353082382E+01  0.45353785267E+03  0.45352247054E+03 0.  0.
      99925    2    3    3    0    0 -0.53307898330E+02 -0.96249102480E+02  0.21824026466E+02  0.28596598278E+03  0.26304872823E+03 0.  0.
         25    1    4    4    0    0 -0.58804499894E+02 -0.74291381156E+02 -0.36239627619E+00  0.15692296821E+03  0.12509000000E+03 0.  0.
         25    1    3    3    0    0  0.53307898330E+02  0.96249102480E+02 -0.18088718228E+02  0.16757186989E+03  0.12509000000E+03 0.  0.
         25    1    4    4    0    0  0.54966015634E+01 -0.21957721325E+02  0.22186422742E+02  0.12904301457E+03  0.12509000000E+03 0.  0.
<mgrwt>
<rscale>  2 0.45352247E+03</rscale>
<asrwt>0</asrwt>
<pdfrwt beam="1">  1       21 0.33623027E-01 0.45352247E+03</pdfrwt>
<pdfrwt beam="2">  1       21 0.33073716E-01 0.45352247E+03</pdfrwt>
<totfact> 0.69468407E+04</totfact>
</mgrwt>
</event>
<event>
 7    0  0.4709932E-002  0.4528335E+03  0.7546771E-02  0.1026880E+00
         21   -1    0    0  502  501  0.00000000000E+00  0.00000000000E+00  0.21172563812E+03  0.21172563812E+03  0.00000000000E+00 0.  1.
         21   -1    0    0  501  502 -0.00000000000E+00 -0.00000000000E+00 -0.24212721286E+03  0.24212721286E+03  0.00000000000E+00 0.  1.
      99926    2    1    2    0    0  0.35527136788E-14  0.00000000000E+00 -0.30401574733E+02  0.45385285098E+03  0.45283347336E+03 0.  0.
      99925    2    3    3    0    0 -0.19474438643E+02 -0.96795500892E+02  0.31813231510E+02  0.28277739111E+03  0.26306339250E+03 0.  0.
         25    1    3    3    0    0  0.19474438643E+02  0.96795500892E+02 -0.62214806243E+02  0.17107545987E+03  0.12509000000E+03 0.  0.
         25    1    4    4    0    0 -0.18357110641E+02 -0.20902216012E+02 -0.15315476108E+02  0.12905796393E+03  0.12509000000E+03 0.  0.
         25    1    4    4    0    0 -0.11173280016E+01 -0.75893284880E+02  0.47128707618E+02  0.15371942718E+03  0.12509000000E+03 0.  0.
<mgrwt>
<rscale>  2 0.45283347E+03</rscale>
<asrwt>0</asrwt>
<pdfrwt beam="1">  1       21 0.31136123E-01 0.45283347E+03</pdfrwt>
<pdfrwt beam="2">  1       21 0.35606943E-01 0.45283347E+03</pdfrwt>
<totfact> 0.69829250E+04</totfact>
</mgrwt>
</event>
<event>
 7    0  0.4709932E-002  0.4625871E+03  0.7546771E-02  0.1024034E+00
         21   -1    0    0  502  501  0.00000000000E+00  0.00000000000E+00  0.12696136922E+03  0.12696136922E+03  0.00000000000E+00 0. -1.
         21   -1    0    0  501  502 -0.00000000000E+00 -0.00000000000E+00 -0.42136208138E+03  0.42136208138E+03  0.00000000000E+00 0. -1.
      99926    2    1    2    0    0  0.71054273576E-14  0.00000000000E+00 -0.29440071216E+03  0.54832345061E+03  0.46258710225E+03 0.  0.
      99925    2    3    3    0    0  0.10720957922E+02 -0.36727421257E+02 -0.31897679836E+03  0.41522448546E+03  0.26306146244E+03 0.  0.
         25    1    3    3    0    0 -0.10720957922E+02  0.36727421257E+02  0.24576086197E+02  0.13309896515E+03  0.12509000000E+03 0.  0.
         25    1    4    4    0    0  0.43995153586E+02 -0.12039937594E+02 -0.17746788085E+03  0.22186232323E+03  0.12509000000E+03 0.  0.
         25    1    4    4    0    0 -0.33274195664E+02 -0.24687483663E+02 -0.14150891751E+03  0.19336216223E+03  0.12509000000E+03 0.  0.
<mgrwt>
<rscale>  2 0.46258710E+03</rscale>
<asrwt>0</asrwt>
<pdfrwt beam="1">  1       21 0.18670790E-01 0.46258710E+03</pdfrwt>
<pdfrwt beam="2">  1       21 0.61965011E-01 0.46258710E+03</pdfrwt>
<totfact> 0.58392264E+04</totfact>
</mgrwt>
</event>
<event>
 7    0  0.4709932E-002  0.4596990E+03  0.7546771E-02  0.1024869E+00
         21   -1    0    0  502  501  0.00000000000E+00  0.00000000000E+00  0.44337703028E+03  0.44337703028E+03  0.00000000000E+00 0. -1.
         21   -1    0    0  501  502 -0.00000000000E+00 -0.00000000000E+00 -0.11915546768E+03  0.11915546768E+03  0.00000000000E+00 0. -1.
      99926    2    1    2    0    0  0.71054273576E-14  0.71054273576E-14  0.32422156260E+03  0.56253249796E+03  0.45969902067E+03 0.  0.
      99925    2    3    3    0    0 -0.37939098021E+02 -0.59603134642E+02  0.88379429971E+02  0.28637868495E+03  0.26307778076E+03 0.  0.
         25    1    3    3    0    0  0.37939098021E+02  0.59603134642E+02  0.23584213263E+03  0.27615381301E+03  0.12509000000E+03 0.  0.
         25    1    4    4    0    0  0.82491535533E+01 -0.13296653352E+02  0.69533562025E+02  0.14396969776E+03  0.12509000000E+03 0.  0.
         25    1    4    4    0    0 -0.46188251575E+02 -0.46306481290E+02  0.18845867945E+02  0.14240898719E+03  0.12509000000E+03 0.  0.
<mgrwt>
<rscale>  2 0.45969902E+03</rscale>
<asrwt>0</asrwt>
<pdfrwt beam="1">  1       21 0.65202504E-01 0.45969902E+03</pdfrwt>
<pdfrwt beam="2">  1       21 0.17522863E-01 0.45969902E+03</pdfrwt>
<totfact> 0.58828724E+04</totfact>
</mgrwt>
</event>
<event>
 7    0  0.4709932E-002  0.4466883E+03  0.7546771E-02  0.1028714E+00
         21   -1    0    0  502  501  0.00000000000E+00  0.00000000000E+00  0.45535286901E+03  0.45535286901E+03  0.00000000000E+00 0.  1.
         21   -1    0    0  501  502 -0.00000000000E+00 -0.00000000000E+00 -0.10954715526E+03  0.10954715526E+03  0.00000000000E+00 0.  1.
      99926    2    1    2    0    0  0.14210854715E-13  0.88817841970E-15  0.34580571375E+03  0.56490002427E+03  0.44668830941E+03 0.  0.
      99925    2    3    3    0    0  0.89211195928E+02 -0.52008062890E+01  0.14915929911E+03  0.31529432250E+03  0.26301393010E+03 0.  0.
         25    1    3    3    0    0 -0.89211195928E+02  0.52008062890E+01  0.19664641465E+03  0.24960570177E+03  0.12509000000E+03 0.  0.
         25    1    4    4    0    0  0.81026353966E+02  0.10777233227E+02  0.99451140621E+02  0.17949778902E+03  0.12509000000E+03 0.  0.
         25    1    4    4    0    0  0.81848419618E+01 -0.15978039516E+02  0.49708158485E+02  0.13579653348E+03  0.12509000000E+03 0.  0.
<mgrwt>
<rscale>  2 0.44668831E+03</rscale>
<asrwt>0</asrwt>
<pdfrwt beam="1">  1       21 0.66963656E-01 0.44668831E+03</pdfrwt>
<pdfrwt beam="2">  1       21 0.16109876E-01 0.44668831E+03</pdfrwt>
<totfact> 0.65065252E+04</totfact>
</mgrwt>
</event>
<event>
 7    0  0.4709932E-002  0.4656200E+03  0.7546771E-02  0.1023164E+00
         21   -1    0    0  502  501  0.00000000000E+00  0.00000000000E+00  0.12591017089E+03  0.12591017089E+03  0.00000000000E+00 0. -1.
         21   -1    0    0  501  502 -0.00000000000E+00 -0.00000000000E+00 -0.43046959965E+03  0.43046959965E+03  0.00000000000E+00 0. -1.
      99926    2    1    2    0    0 -0.14210854715E-13 -0.14210854715E-13 -0.30455942876E+03  0.55637977054E+03  0.46562002042E+03 0.  0.
      99925    2    3    3    0    0  0.78924870970E+02  0.85276793507E+02 -0.23886632637E+03  0.37344710924E+03  0.26249638999E+03 0.  0.
         25    1    4    4    0    0  0.74888707543E+02  0.49390051112E+02 -0.15573847282E+03  0.21897414387E+03  0.12509000000E+03 0.  0.
         25    1    3    3    0    0 -0.78924870970E+02 -0.85276793507E+02 -0.65693102396E+02  0.18293266130E+03  0.12509000000E+03 0.  0.
         25    1    4    4    0    0  0.40361634268E+01  0.35886742395E+02 -0.83127853546E+02  0.15447296537E+03  0.12509000000E+03 0.  0.
<mgrwt>
<rscale>  2 0.46562002E+03</rscale>
<asrwt>0</asrwt>
<pdfrwt beam="1">  1       21 0.18516202E-01 0.46562002E+03</pdfrwt>
<pdfrwt beam="2">  1       21 0.63304352E-01 0.46562002E+03</pdfrwt>
<totfact> 0.56544527E+04</totfact>
</mgrwt>
</event>
<event>
 7    0  0.4709932E-002  0.4674856E+03  0.7546771E-02  0.1022632E+00
         21   -1    0    0  502  501  0.00000000000E+00  0.00000000000E+00  0.11741303607E+03  0.11741303607E+03  0.00000000000E+00 0. -1.
         21   -1    0    0  501  502 -0.00000000000E+00 -0.00000000000E+00 -0.46532907273E+03  0.46532907273E+03  0.00000000000E+00 0. -1.
      99926    2    1    2    0    0  0.00000000000E+00  0.00000000000E+00 -0.34791603666E+03  0.58274210880E+03  0.46748561133E+03 0.  0.
      99925    2    3    3    0    0 -0.65786815191E+02  0.38158269079E+02 -0.33974777573E+03  0.43611950775E+03  0.26265512631E+03 0.  0.
         25    1    3    3    0    0  0.65786815191E+02 -0.38158269079E+02 -0.81682609333E+01  0.14662260105E+03  0.12509000000E+03 0.  0.
         25    1    4    4    0    0  0.61924210667E+01  0.63753508838E+01 -0.16545579513E+03  0.20761049930E+03  0.12509000000E+03 0.  0.
         25    1    4    4    0    0 -0.71979236258E+02  0.31782918195E+02 -0.17429198060E+03  0.22850900845E+03  0.12509000000E+03 0.  0.
<mgrwt>
<rscale>  2 0.46748561E+03</rscale>
<asrwt>0</asrwt>
<pdfrwt beam="1">  1       21 0.17266623E-01 0.46748561E+03</pdfrwt>
<pdfrwt beam="2">  1       21 0.68430746E-01 0.46748561E+03</pdfrwt>
<totfact> 0.54201899E+04</totfact>
</mgrwt>
</event>
<event>
 6    0  0.4709932E-002  0.4456248E+03  0.7546771E-02  0.1029035E+00
         21   -1    0    0  502  501  0.00000000000E+00  0.00000000000E+00  0.68402481184E+02  0.68402481184E+02  0.00000000000E+00 0. -1.
         21   -1    0    0  501  502 -0.00000000000E+00 -0.00000000000E+00 -0.72578304262E+03  0.72578304262E+03  0.00000000000E+00 0. -1.
      99926    2    1    2    0    0 -0.88817841970E-15  0.00000000000E+00 -0.65738056144E+03  0.79418552380E+03  0.44562477901E+03 0.  0.
         25    1    3    3    0    0  0.48690720898E+01  0.90147910722E+02 -0.26796654782E+03  0.30919885595E+03  0.12509000000E+03 0.  0.
         25    1    3    3    0    0  0.19198124132E+02 -0.76177904283E+02 -0.13495076123E+03  0.20007712794E+03  0.12509000000E+03 0.  0.
         25    1    3    3    0    0 -0.24067196222E+02 -0.13970006439E+02 -0.25446325239E+03  0.28490953991E+03  0.12509000000E+03 0.  0.
<mgrwt>
<rscale>  2 0.44562478E+03</rscale>
<asrwt>0</asrwt>
<pdfrwt beam="1">  1       21 0.10059189E-01 0.44562478E+03</pdfrwt>
<pdfrwt beam="2">  1       21 0.10673280E+00 0.44562478E+03</pdfrwt>
<totfact> 0.51751389E+04</totfact>
</mgrwt>
</event>
<event>
 7    0  0.4709932E-002  0.4369119E+03  0.7546771E-02  0.1031699E+00
         21   -1    0    0  502  501  0.00000000000E+00  0.00000000000E+00  0.15014333592E+04  0.15014333592E+04  0.00000000000E+00 0.  1.
         21   -1    0    0  501  502 -0.00000000000E+00 -0.00000000000E+00 -0.31784960788E+02  0.31784960788E+02  0.00000000000E+00 0.  1.
      99926    2    1    2    0    0  0.00000000000E+00  0.00000000000E+00  0.14696483984E+04  0.15332183200E+04  0.43691189248E+03 0.  0.
      99925    2    3    3    0    0  0.63064966583E+01 -0.94573938942E+02  0.96938482892E+03  0.10089138770E+04  0.26308983813E+03 0.  0.
         25    1    3    3    0    0 -0.63064966583E+01  0.94573938942E+02  0.50026356949E+03  0.52430444294E+03  0.12509000000E+03 0.  0.
         25    1    4    4    0    0  0.16954824483E+01 -0.83438492430E+02  0.60732629770E+03  0.62566572278E+03  0.12509000000E+03 0.  0.
         25    1    4    4    0    0  0.46110142099E+01 -0.11135446512E+02  0.36205853122E+03  0.38324815426E+03  0.12509000000E+03 0.  0.
<mgrwt>
<rscale>  2 0.43691189E+03</rscale>
<asrwt>0</asrwt>
<pdfrwt beam="1">  1       21 0.22079898E+00 0.43691189E+03</pdfrwt>
<pdfrwt beam="2">  1       21 0.46742600E-02 0.43691189E+03</pdfrwt>
<totfact> 0.26509985E+04</totfact>
</mgrwt>
</event>
<event>
 7    0  0.4709932E-002  0.4589872E+03  0.7546771E-02  0.1025075E+00
         21   -1    0    0  502  501  0.00000000000E+00  0.00000000000E+00  0.35183228467E+02  0.35183228467E+02  0.00000000000E+00 0.  1.
         21   -1    0    0  501  502 -0.00000000000E+00 -0.00000000000E+00 -0.14969435189E+04  0.14969435189E+04  0.00000000000E+00 0.  1.
      99926    2    1    2    0    0  0.71054273576E-14  0.00000000000E+00 -0.14617602904E+04  0.15321267474E+04  0.45898717118E+03 0.  0.
      99925    2    3    3    0    0 -0.60054882413E+02 -0.99883364414E+02 -0.88922609745E+03  0.93461006507E+03  0.26303924794E+03 0.  0.
         25    1    4    4    0    0  0.71524354365E+01 -0.64715999308E+02 -0.41212506386E+03  0.43558454318E+03  0.12509000000E+03 0.  0.
         25    1    3    3    0    0  0.60054882413E+02  0.99883364414E+02 -0.57253419299E+03  0.59751668230E+03  0.12509000000E+03 0.  0.
         25    1    4    4    0    0 -0.67207317849E+02 -0.35167365106E+02 -0.47710103359E+03  0.49902552189E+03  0.12509000000E+03 0.  0.
<mgrwt>
<rscale>  2 0.45898717E+03</rscale>
<asrwt>0</asrwt>
<pdfrwt beam="1">  1       21 0.51740044E-02 0.45898717E+03</pdfrwt>
<pdfrwt beam="2">  1       21 0.22013874E+00 0.45898717E+03</pdfrwt>
<totfact> 0.22303907E+04</totfact>
</mgrwt>
</event>
<event>
 7    0  0.4709932E-002  0.4546116E+03  0.7546771E-02  0.1026356E+00
         21   -1    0    0  502  501  0.00000000000E+00  0.00000000000E+00  0.10405709237E+03  0.10405709237E+03  0.00000000000E+00 0.  1.
         21   -1    0    0  501  502 -0.00000000000E+00 -0.00000000000E+00 -0.49653441162E+03  0.49653441162E+03  0.00000000000E+00 0.  1.
      99926    2    1    2    0    0  0.00000000000E+00  0.00000000000E+00 -0.39247731925E+03  0.60059150400E+03  0.45461160186E+03 0.  0.
      99925    2    3    3    0    0  0.10191095729E+03 -0.43115513717E+02 -0.21962711178E+03  0.36023865284E+03  0.26323189023E+03 0.  0.
         25    1    3    3    0    0 -0.10191095729E+03  0.43115513717E+02 -0.17285020746E+03  0.24035285116E+03  0.12509000000E+03 0.  0.
         25    1    4    4    0    0  0.18658211227E+02 -0.47690427483E+02 -0.10724590781E+03  0.17254477263E+03  0.12509000000E+03 0.  0.
         25    1    4    4    0    0  0.83252746060E+02  0.45749137661E+01 -0.11238120397E+03  0.18769388021E+03  0.12509000000E+03 0.  0.
<mgrwt>
<rscale>  2 0.45461160E+03</rscale>
<asrwt>0</asrwt>
<pdfrwt beam="1">  1       21 0.15302514E-01 0.45461160E+03</pdfrwt>
<pdfrwt beam="2">  1       21 0.73019764E-01 0.45461160E+03</pdfrwt>
<totfact> 0.58822179E+04</totfact>
</mgrwt>
</event>
<event>
 7    0  0.4709932E-002  0.4626594E+03  0.7546771E-02  0.1024013E+00
         21   -1    0    0  502  501  0.00000000000E+00  0.00000000000E+00  0.32716459067E+03  0.32716459067E+03  0.00000000000E+00 0.  1.
         21   -1    0    0  501  502 -0.00000000000E+00 -0.00000000000E+00 -0.16356730914E+03  0.16356730914E+03  0.00000000000E+00 0.  1.
      99926    2    1    2    0    0  0.00000000000E+00  0.00000000000E+00  0.16359728153E+03  0.49073189980E+03  0.46265940708E+03 0.  0.
      99925    2    3    3    0    0 -0.90626755715E+02 -0.69736197044E+02  0.63036248802E+02  0.29366243126E+03  0.26303556573E+03 0.  0.
         25    1    4    4    0    0 -0.67753611360E+02 -0.24600901042E+01  0.21302520493E+02  0.14386768009E+03  0.12509000000E+03 0.  0.
         25    1    3    3    0    0  0.90626755715E+02  0.69736197044E+02  0.10056103273E+03  0.19706946855E+03  0.12509000000E+03 0.  0.
         25    1    4    4    0    0 -0.22873144356E+02 -0.67276106940E+02  0.41733728310E+02  0.14979475116E+03  0.12509000000E+03 0.  0.
<mgrwt>
<rscale>  2 0.46265941E+03</rscale>
<asrwt>0</asrwt>
<pdfrwt beam="1">  1       21 0.48112440E-01 0.46265941E+03</pdfrwt>
<pdfrwt beam="2">  1       21 0.24054016E-01 0.46265941E+03</pdfrwt>
<totfact> 0.62066223E+04</totfact>
</mgrwt>
</event>
<event>
 7    0  0.4709932E-002  0.4525100E+03  0.7546771E-02  0.1026976E+00
         21   -1    0    0  502  501  0.00000000000E+00  0.00000000000E+00  0.10015675446E+03  0.10015675446E+03  0.00000000000E+00 0.  1.
         21   -1    0    0  501  502 -0.00000000000E+00 -0.00000000000E+00 -0.51111198520E+03  0.51111198520E+03  0.00000000000E+00 0.  1.
      99926    2    1    2    0    0  0.00000000000E+00  0.00000000000E+00 -0.41095523074E+03  0.61126873966E+03  0.45250996720E+03 0.  0.
      99925    2    3    3    0    0 -0.33759460633E+02  0.10535295570E+03 -0.26779399491E+03  0.39131057545E+03  0.26300455565E+03 0.  0.
         25    1    3    3    0    0  0.33759460633E+02 -0.10535295570E+03 -0.14316123583E+03  0.21995816421E+03  0.12509000000E+03 0.  0.
         25    1    4    4    0    0  0.46316419267E+01  0.28211934079E+02 -0.86277263733E+02  0.15462418850E+03  0.12509000000E+03 0.  0.
         25    1    4    4    0    0 -0.38391102560E+02  0.77141021624E+02 -0.18151673117E+03  0.23668638695E+03  0.12509000000E+03 0.  0.
<mgrwt>
<rscale>  2 0.45250997E+03</rscale>
<asrwt>0</asrwt>
<pdfrwt beam="1">  1       21 0.14728935E-01 0.45250997E+03</pdfrwt>
<pdfrwt beam="2">  1       21 0.75163526E-01 0.45250997E+03</pdfrwt>
<totfact> 0.59144632E+04</totfact>
</mgrwt>
</event>
<event>
 7    0  0.4709932E-002  0.4586359E+03  0.7546771E-02  0.1025178E+00
         21   -1    0    0  502  501  0.00000000000E+00  0.00000000000E+00  0.14646180781E+03  0.14646180781E+03  0.00000000000E+00 0. -1.
         21   -1    0    0  501  502 -0.00000000000E+00 -0.00000000000E+00 -0.35904726698E+03  0.35904726698E+03  0.00000000000E+00 0. -1.
      99926    2    1    2    0    0  0.00000000000E+00 -0.14210854715E-13 -0.21258545917E+03  0.50550907479E+03  0.45863585473E+03 0.  0.
      99925    2    3    3    0    0  0.80166262012E+02 -0.79859529618E+02 -0.16413825356E+03  0.33001316639E+03  0.26298887746E+03 0.  0.
         25    1    4    4    0    0  0.26056608223E+02  0.98854141192E+00 -0.76447438427E+02  0.14890145395E+03  0.12509000000E+03 0.  0.
         25    1    3    3    0    0 -0.80166262012E+02  0.79859529618E+02 -0.48447205611E+02  0.17549590841E+03  0.12509000000E+03 0.  0.
         25    1    4    4    0    0  0.54109653789E+02 -0.80848071030E+02 -0.87690815137E+02  0.18111171244E+03  0.12509000000E+03 0.  0.
<mgrwt>
<rscale>  2 0.45863585E+03</rscale>
<asrwt>0</asrwt>
<pdfrwt beam="1">  1       21 0.21538501E-01 0.45863585E+03</pdfrwt>
<pdfrwt beam="2">  1       21 0.52801069E-01 0.45863585E+03</pdfrwt>
<totfact> 0.63046103E+04</totfact>
</mgrwt>
</event>
<event>
 7    0  0.4709932E-002  0.4390352E+03  0.7546771E-02  0.1031043E+00
         21   -1    0    0  502  501  0.00000000000E+00  0.00000000000E+00  0.78583294555E+03  0.78583294555E+03  0.00000000000E+00 0. -1.
         21   -1    0    0  501  502 -0.00000000000E+00 -0.00000000000E+00 -0.61320904249E+02  0.61320904249E+02  0.00000000000E+00 0. -1.
      99926    2    1    2    0    0  0.00000000000E+00  0.00000000000E+00  0.72451204130E+03  0.84715384980E+03  0.43903524601E+03 0.  0.
      99925    2    3    3    0    0 -0.13051071144E+02 -0.66549824564E+02  0.59769916754E+03  0.65655421009E+03  0.26309680024E+03 0.  0.
         25    1    4    4    0    0  0.64685387403E+01 -0.44535762833E+01  0.21724029546E+03  0.25080376873E+03  0.12509000000E+03 0.  0.
         25    1    4    4    0    0 -0.19519609885E+02 -0.62096248281E+02  0.38045887208E+03  0.40575044136E+03  0.12509000000E+03 0.  0.
         25    1    3    3    0    0  0.13051071144E+02  0.66549824564E+02  0.12681287376E+03  0.19059963971E+03  0.12509000000E+03 0.  0.
<mgrwt>
<rscale>  2 0.43903525E+03</rscale>
<asrwt>0</asrwt>
<pdfrwt beam="1">  1       21 0.11556366E+00 0.43903525E+03</pdfrwt>
<pdfrwt beam="2">  1       21 0.90177805E-02 0.43903525E+03</pdfrwt>
<totfact> 0.51749821E+04</totfact>
</mgrwt>
</event>
<event>
 7    0  0.4709932E-002  0.4562208E+03  0.7546771E-02  0.1025883E+00
         21   -1    0    0  502  501  0.00000000000E+00  0.00000000000E+00  0.52352858229E+03  0.52352858229E+03  0.00000000000E+00 0.  1.
         21   -1    0    0  501  502 -0.00000000000E+00 -0.00000000000E+00 -0.99391633996E+02  0.99391633996E+02  0.00000000000E+00 0.  1.
      99926    2    1    2    0    0 -0.71054273576E-14  0.14210854715E-13  0.42413694829E+03  0.62292021629E+03  0.45622082915E+03 0.  0.
      99925    2    3    3    0    0 -0.41414333668E+02  0.10356283706E+03  0.23238584531E+03  0.36825101546E+03  0.26299281556E+03 0.  0.
         25    1    4    4    0    0 -0.45954220969E+02  0.80549341328E+02  0.10261480391E+03  0.18648670970E+03  0.12509000000E+03 0.  0.
         25    1    3    3    0    0  0.41414333668E+02 -0.10356283706E+03  0.19175110299E+03  0.25466920083E+03  0.12509000000E+03 0.  0.
         25    1    4    4    0    0  0.45398873012E+01  0.23013495735E+02  0.12977104140E+03  0.18176430576E+03  0.12509000000E+03 0.  0.
<mgrwt>
<rscale>  2 0.45622083E+03</rscale>
<asrwt>0</asrwt>
<pdfrwt beam="1">  1       21 0.76989496E-01 0.45622083E+03</pdfrwt>
<pdfrwt beam="2">  1       21 0.14616417E-01 0.45622083E+03</pdfrwt>
<totfact> 0.56740262E+04</totfact>
</mgrwt>
</event>
<event>
 7    0  0.4709932E-002  0.4599879E+03  0.7546771E-02  0.1024785E+00
         21   -1    0    0  502  501  0.00000000000E+00  0.00000000000E+00  0.13064594999E+03  0.13064594999E+03  0.00000000000E+00 0. -1.
         21   -1    0    0  501  502 -0.00000000000E+00 -0.00000000000E+00 -0.40488980329E+03  0.40488980329E+03  0.00000000000E+00 0. -1.
      99926    2    1    2    0    0  0.00000000000E+00  0.15543122345E-14 -0.27424385330E+03  0.53553575327E+03  0.45998788241E+03 0.  0.
      99925    2    3    3    0    0 -0.11474969119E+03 -0.13081846600E+01 -0.14177994015E+03  0.32021413484E+03  0.26318498770E+03 0.  0.
         25    1    3    3    0    0  0.11474969119E+03  0.13081846600E+01 -0.13246391315E+03  0.21532161843E+03  0.12509000000E+03 0.  0.
         25    1    4    4    0    0 -0.63996096656E+02  0.36651978056E+02 -0.54848485979E+02  0.15522478023E+03  0.12509000000E+03 0.  0.
         25    1    4    4    0    0 -0.50753594538E+02 -0.37960162716E+02 -0.86931454172E+02  0.16498935462E+03  0.12509000000E+03 0.  0.
<mgrwt>
<rscale>  2 0.45998788E+03</rscale>
<asrwt>0</asrwt>
<pdfrwt beam="1">  1       21 0.19212640E-01 0.45998788E+03</pdfrwt>
<pdfrwt beam="2">  1       21 0.59542618E-01 0.45998788E+03</pdfrwt>
<totfact> 0.60409688E+04</totfact>
</mgrwt>
</event>
<event>
 7    0  0.4709932E-002  0.4540171E+03  0.7546771E-02  0.1026531E+00
         21   -1    0    0  502  501  0.00000000000E+00  0.00000000000E+00  0.41091802502E+02  0.41091802502E+02  0.00000000000E+00 0.  1.
         21   -1    0    0  501  502 -0.00000000000E+00 -0.00000000000E+00 -0.12540913972E+04  0.12540913972E+04  0.00000000000E+00 0.  1.
      99926    2    1    2    0    0  0.14210854715E-13  0.35527136788E-14 -0.12129995947E+04  0.12951831997E+04  0.45401707463E+03 0.  0.
      99925    2    3    3    0    0  0.10715944497E+03 -0.21864831134E+02 -0.68990454897E+03  0.74633244362E+03  0.26283571337E+03 0.  0.
         25    1    4    4    0    0  0.11695331713E+02  0.86189111198E+00 -0.31181889275E+03  0.33617860375E+03  0.12509000000E+03 0.  0.
         25    1    3    3    0    0 -0.10715944497E+03  0.21864831134E+02 -0.52309504574E+03  0.54885075609E+03  0.12509000000E+03 0.  0.
         25    1    4    4    0    0  0.95464113262E+02 -0.22726722246E+02 -0.37808565622E+03  0.41015383987E+03  0.12509000000E+03 0.  0.
<mgrwt>
<rscale>  2 0.45401707E+03</rscale>
<asrwt>0</asrwt>
<pdfrwt beam="1">  1       21 0.60429123E-02 0.45401707E+03</pdfrwt>
<pdfrwt beam="2">  1       21 0.18442520E+00 0.45401707E+03</pdfrwt>
<totfact> 0.29479630E+04</totfact>
</mgrwt>
</event>
<event>
 6    0  0.4709932E-002  0.4614616E+03  0.7546771E-02  0.1024358E+00
         21   -1    0    0  502  501  0.00000000000E+00  0.00000000000E+00  0.48187247041E+03  0.48187247041E+03  0.00000000000E+00 0.  1.
         21   -1    0    0  501  502 -0.00000000000E+00 -0.00000000000E+00 -0.11047880750E+03  0.11047880750E+03  0.00000000000E+00 0.  1.
      99926    2    1    2    0    0  0.00000000000E+00  0.00000000000E+00  0.37139366291E+03  0.59235127791E+03  0.46146157325E+03 0.  0.
         25    1    3    3    0    0 -0.27489699062E+02 -0.14569920978E+02 -0.35943477088E+01  0.12895112868E+03  0.12509000000E+03 0.  0.
         25    1    3    3    0    0  0.23683967284E+02 -0.13480544434E+02  0.10913473896E+03  0.16822768718E+03  0.12509000000E+03 0.  0.
         25    1    3    3    0    0  0.38057317773E+01  0.28050465412E+02  0.26585327165E+03  0.29517246205E+03  0.12509000000E+03 0.  0.
<mgrwt>
<rscale>  2 0.46146157E+03</rscale>
<asrwt>0</asrwt>
<pdfrwt beam="1">  1       21 0.70863598E-01 0.46146157E+03</pdfrwt>
<pdfrwt beam="2">  1       21 0.16246884E-01 0.46146157E+03</pdfrwt>
<totfact> 0.56224824E+04</totfact>
</mgrwt>
</event>
<event>
 7    0  0.4709932E-002  0.4661645E+03  0.7546771E-02  0.1023008E+00
         21   -1    0    0  502  501  0.00000000000E+00  0.00000000000E+00  0.53019402236E+03  0.53019402236E+03  0.00000000000E+00 0.  1.
         21   -1    0    0  501  502 -0.00000000000E+00 -0.00000000000E+00 -0.10246691383E+03  0.10246691383E+03  0.00000000000E+00 0.  1.
      99926    2    1    2    0    0  0.00000000000E+00  0.00000000000E+00  0.42772710853E+03  0.63266093618E+03  0.46616454263E+03 0.  0.
      99925    2    3    3    0    0  0.98450087429E+02 -0.74544467233E+02  0.26513575719E+03  0.39321834820E+03  0.26282009495E+03 0.  0.
         25    1    4    4    0    0  0.74056595967E+02 -0.69747034851E+02  0.12730256841E+03  0.20543242271E+03  0.12509000000E+03 0.  0.
         25    1    3    3    0    0 -0.98450087429E+02  0.74544467233E+02  0.16259135133E+03  0.23944258798E+03  0.12509000000E+03 0.  0.
         25    1    4    4    0    0  0.24393491462E+02 -0.47974323821E+01  0.13783318879E+03  0.18778592550E+03  0.12509000000E+03 0.  0.
<mgrwt>
<rscale>  2 0.46616454E+03</rscale>
<asrwt>0</asrwt>
<pdfrwt beam="1">  1       21 0.77969708E-01 0.46616454E+03</pdfrwt>
<pdfrwt beam="2">  1       21 0.15068664E-01 0.46616454E+03</pdfrwt>
<totfact> 0.51976987E+04</totfact>
</mgrwt>
</event>
<event>
 7    0  0.4709932E-002  0.4532931E+03  0.7546771E-02  0.1026745E+00
         21   -1    0    0  502  501  0.00000000000E+00  0.00000000000E+00  0.61908475318E+03  0.61908475318E+03  0.00000000000E+00 0.  1.
         21   -1    0    0  501  502 -0.00000000000E+00 -0.00000000000E+00 -0.82975148495E+02  0.82975148495E+02  0.00000000000E+00 0.  1.
      99926    2    1    2    0    0  0.35527136788E-14  0.00000000000E+00  0.53610960469E+03  0.70205990168E+03  0.45329305897E+03 0.  0.
      99925    2    3    3    0    0 -0.30931276816E+02 -0.95837734771E+02  0.26427609456E+03  0.38633441868E+03  0.26319349081E+03 0.  0.
         25    1    3    3    0    0  0.30931276816E+02  0.95837734771E+02  0.27183351012E+03  0.31572548300E+03  0.12509000000E+03 0.  0.
         25    1    4    4    0    0 -0.42223781214E+02 -0.82062781829E+02  0.14543644969E+03  0.21287652961E+03  0.12509000000E+03 0.  0.
         25    1    4    4    0    0  0.11292504398E+02 -0.13774952942E+02  0.11883964488E+03  0.17345788907E+03  0.12509000000E+03 0.  0.
<mgrwt>
<rscale>  2 0.45329306E+03</rscale>
<asrwt>0</asrwt>
<pdfrwt beam="1">  1       21 0.91041873E-01 0.45329306E+03</pdfrwt>
<pdfrwt beam="2">  1       21 0.12202228E-01 0.45329306E+03</pdfrwt>
<totfact> 0.53506365E+04</totfact>
</mgrwt>
</event>
<event>
 7    0  0.4709932E-002  0.4566308E+03  0.7546771E-02  0.1025763E+00
         21   -1    0    0  502  501  0.00000000000E+00  0.00000000000E+00  0.62076449844E+02  0.62076449844E+02  0.00000000000E+00 0. -1.
         21   -1    0    0  501  502 -0.00000000000E+00 -0.00000000000E+00 -0.83973741242E+03  0.83973741242E+03  0.00000000000E+00 0. -1.
      99926    2    1    2    0    0  0.00000000000E+00  0.00000000000E+00 -0.77766096258E+03  0.90181386227E+03  0.45663078024E+03 0.  0.
      99925    2    3    3    0    0 -0.76946701266E+02  0.34484682324E+02 -0.33523097102E+03  0.43437210795E+03  0.26303865891E+03 0.  0.
         25    1    4    4    0    0 -0.11558564049E+02 -0.15243424525E+02 -0.15062226692E+03  0.19672452259E+03  0.12509000000E+03 0.  0.
         25    1    3    3    0    0  0.76946701266E+02 -0.34484682324E+02 -0.44242999156E+03  0.46744175432E+03  0.12509000000E+03 0.  0.
         25    1    4    4    0    0 -0.65388137217E+02  0.49728106849E+02 -0.18460870409E+03  0.23764758536E+03  0.12509000000E+03 0.  0.
<mgrwt>
<rscale>  2 0.45663078E+03</rscale>
<asrwt>0</asrwt>
<pdfrwt beam="1">  1       21 0.91288897E-02 0.45663078E+03</pdfrwt>
<pdfrwt beam="2">  1       21 0.12349080E+00 0.45663078E+03</pdfrwt>
<totfact> 0.42608727E+04</totfact>
</mgrwt>
</event>
<event>
 7    0  0.4709932E-002  0.4515097E+03  0.7546771E-02  0.1027273E+00
         21   -1    0    0  502  501  0.00000000000E+00  0.00000000000E+00  0.96250464489E+02  0.96250464489E+02  0.00000000000E+00 0.  1.
         21   -1    0    0  501  502 -0.00000000000E+00 -0.00000000000E+00 -0.52950664660E+03  0.52950664660E+03  0.00000000000E+00 0.  1.
      99926    2    1    2    0    0  0.00000000000E+00 -0.71054273576E-14 -0.43325618211E+03  0.62575711108E+03  0.45150973715E+03 0.  0.
      99925    2    3    3    0    0 -0.17955418555E+02 -0.44793058600E+02 -0.13665831607E+03  0.30026269117E+03  0.26297028959E+03 0.  0.
         25    1    3    3    0    0  0.17955418555E+02  0.44793058600E+02 -0.29659786604E+03  0.32549441991E+03  0.12509000000E+03 0.  0.
         25    1    4    4    0    0 -0.29808475200E+02 -0.46751591347E+01 -0.10113093297E+03  0.16366238422E+03  0.12509000000E+03 0.  0.
         25    1    4    4    0    0  0.11853056644E+02 -0.40117899465E+02 -0.35527383102E+02  0.13660030695E+03  0.12509000000E+03 0.  0.
<mgrwt>
<rscale>  2 0.45150974E+03</rscale>
<asrwt>0</asrwt>
<pdfrwt beam="1">  1       21 0.14154480E-01 0.45150974E+03</pdfrwt>
<pdfrwt beam="2">  1       21 0.77868624E-01 0.45150974E+03</pdfrwt>
<totfact> 0.58721657E+04</totfact>
</mgrwt>
</event>
<event>
 7    0  0.4709932E-002  0.4553344E+03  0.7546771E-02  0.1026143E+00
         21   -1    0    0  502  501  0.00000000000E+00  0.00000000000E+00  0.48602733284E+03  0.48602733284E+03  0.00000000000E+00 0. -1.
         21   -1    0    0  501  502 -0.00000000000E+00 -0.00000000000E+00 -0.10664492994E+03  0.10664492994E+03  0.00000000000E+00 0. -1.
      99926    2    1    2    0    0  0.00000000000E+00  0.00000000000E+00  0.37938240291E+03  0.59267226278E+03  0.45533438639E+03 0.  0.
      99925    2    3    3    0    0  0.99050004606E+02 -0.30983238179E+02  0.17909800448E+03  0.33473387321E+03  0.26305856041E+03 0.  0.
         25    1    4    4    0    0  0.85358210040E+02 -0.38125759928E+02  0.10978986063E+03  0.19089504757E+03  0.12509000000E+03 0.  0.
         25    1    4    4    0    0  0.13691794566E+02  0.71425217487E+01  0.69308143851E+02  0.14383882563E+03  0.12509000000E+03 0.  0.
         25    1    3    3    0    0 -0.99050004606E+02  0.30983238179E+02  0.20028439843E+03  0.25793838957E+03  0.12509000000E+03 0.  0.
<mgrwt>
<rscale>  2 0.45533439E+03</rscale>
<asrwt>0</asrwt>
<pdfrwt beam="1">  1       21 0.71474607E-01 0.45533439E+03</pdfrwt>
<pdfrwt beam="2">  1       21 0.15683078E-01 0.45533439E+03</pdfrwt>
<totfact> 0.58975584E+04</totfact>
</mgrwt>
</event>
<event>
 7    0  0.4709932E-002  0.4615312E+03  0.7546771E-02  0.1024338E+00
         21   -1    0    0  502  501  0.00000000000E+00  0.00000000000E+00  0.23755895181E+03  0.23755895181E+03  0.00000000000E+00 0.  1.
         21   -1    0    0  501  502 -0.00000000000E+00 -0.00000000000E+00 -0.22416655807E+03  0.22416655807E+03  0.00000000000E+00 0.  1.
      99926    2    1    2    0    0  0.17763568394E-14 -0.14210854715E-13  0.13392393739E+02  0.46172550988E+03  0.46153124517E+03 0.  0.
      99925    2    3    3    0    0  0.12406047387E+02 -0.11696973296E+03  0.13396651620E+02  0.29001838551E+03  0.26475529309E+03 0.  0.
         25    1    4    4    0    0  0.59054465867E+01 -0.10554627776E+03  0.12274216544E+02  0.16423475740E+03  0.12509000000E+03 0.  0.
         25    1    4    4    0    0  0.65006008006E+01 -0.11423455205E+02  0.11224350760E+01  0.12578362811E+03  0.12509000000E+03 0.  0.
         25    1    3    3    0    0 -0.12406047387E+02  0.11696973296E+03 -0.42578813465E-02  0.17170712437E+03  0.12509000000E+03 0.  0.
<mgrwt>
<rscale>  2 0.46153125E+03</rscale>
<asrwt>0</asrwt>
<pdfrwt beam="1">  1       21 0.34935140E-01 0.46153125E+03</pdfrwt>
<pdfrwt beam="2">  1       21 0.32965670E-01 0.46153125E+03</pdfrwt>
<totfact> 0.64622044E+04</totfact>
</mgrwt>
</event>
<event>
 7    0  0.4709932E-002  0.4548507E+03  0.7546771E-02  0.1026285E+00
         21   -1    0    0  502  501  0.00000000000E+00  0.00000000000E+00  0.32139813228E+02  0.32139813228E+02  0.00000000000E+00 0. -1.
         21   -1    0    0  501  502 -0.00000000000E+00 -0.00000000000E+00 -0.16092904694E+04  0.16092904694E+04  0.00000000000E+00 0. -1.
      99926    2    1    2    0    0  0.00000000000E+00  0.00000000000E+00 -0.15771506561E+04  0.16414302826E+04  0.45485072327E+03 0.  0.
      99925    2    3    3    0    0 -0.40342337010E+02 -0.50849307524E+02 -0.65841756130E+03  0.71195130818E+03  0.26295973828E+03 0.  0.
         25    1    4    4    0    0 -0.49008027079E+02 -0.23848381703E+02 -0.41426484495E+03  0.43615754251E+03  0.12509000000E+03 0.  0.
         25    1    4    4    0    0  0.86656900693E+01 -0.27000925821E+02 -0.24415271635E+03  0.27579376567E+03  0.12509000000E+03 0.  0.
         25    1    3    3    0    0  0.40342337010E+02  0.50849307524E+02 -0.91873309483E+03  0.92947897441E+03  0.12509000000E+03 0.  0.
<mgrwt>
<rscale>  2 0.45485072E+03</rscale>
<asrwt>0</asrwt>
<pdfrwt beam="1">  1       21 0.47264421E-02 0.45485072E+03</pdfrwt>
<pdfrwt beam="2">  1       21 0.23666042E+00 0.45485072E+03</pdfrwt>
<totfact> 0.20533316E+04</totfact>
</mgrwt>
</event>
<event>
 7    0  0.4709932E-002  0.4523545E+03  0.7546771E-02  0.1027022E+00
         21   -1    0    0  502  501  0.00000000000E+00  0.00000000000E+00  0.93317771286E+02  0.93317771286E+02  0.00000000000E+00 0. -1.
         21   -1    0    0  501  502 -0.00000000000E+00 -0.00000000000E+00 -0.54819292290E+03  0.54819292290E+03  0.00000000000E+00 0. -1.
      99926    2    1    2    0    0  0.14210854715E-13  0.00000000000E+00 -0.45487515161E+03  0.64151069418E+03  0.45235447074E+03 0.  0.
      99925    2    3    3    0    0 -0.65805241836E+02 -0.85764072881E+02 -0.31553409871E+03  0.42529496123E+03  0.26387161756E+03 0.  0.
         25    1    3    3    0    0  0.65805241836E+02  0.85764072881E+02 -0.13934105291E+03  0.21621573295E+03  0.12509000000E+03 0.  0.
         25    1    4    4    0    0 -0.48006140694E+00 -0.11371651669E+02 -0.14160104355E+03  0.18928261556E+03  0.12509000000E+03 0.  0.
         25    1    4    4    0    0 -0.65325180429E+02 -0.74392421212E+02 -0.17393305516E+03  0.23601234567E+03  0.12509000000E+03 0.  0.
<mgrwt>
<rscale>  2 0.45235447E+03</rscale>
<asrwt>0</asrwt>
<pdfrwt beam="1">  1       21 0.13723202E-01 0.45235447E+03</pdfrwt>
<pdfrwt beam="2">  1       21 0.80616605E-01 0.45235447E+03</pdfrwt>
<totfact> 0.57381767E+04</totfact>
</mgrwt>
</event>
<event>
 7    0  0.4709932E-002  0.4621605E+03  0.7546771E-02  0.1024156E+00
         21   -1    0    0  502  501  0.00000000000E+00  0.00000000000E+00  0.21599009165E+03  0.21599009165E+03  0.00000000000E+00 0. -1.
         21   -1    0    0  501  502 -0.00000000000E+00 -0.00000000000E+00 -0.24722472027E+03  0.24722472027E+03  0.00000000000E+00 0. -1.
      99926    2    1    2    0    0  0.00000000000E+00  0.00000000000E+00 -0.31234628623E+02  0.46321481192E+03  0.46216053484E+03 0.  0.
      99925    2    3    3    0    0 -0.52885458037E+02  0.11719922321E+02 -0.12655323920E+03  0.29687968673E+03  0.26303535464E+03 0.  0.
         25    1    4    4    0    0 -0.49172217350E+02 -0.15589790973E+02 -0.93881949585E+02  0.16468842430E+03  0.12509000000E+03 0.  0.
         25    1    3    3    0    0  0.52885458037E+02 -0.11719922321E+02  0.95318610576E+02  0.16633512519E+03  0.12509000000E+03 0.  0.
         25    1    4    4    0    0 -0.37132406874E+01  0.27309713293E+02 -0.32671289615E+02  0.13219126243E+03  0.12509000000E+03 0.  0.
<mgrwt>
<rscale>  2 0.46216053E+03</rscale>
<asrwt>0</asrwt>
<pdfrwt beam="1">  1       21 0.31763249E-01 0.46216053E+03</pdfrwt>
<pdfrwt beam="2">  1       21 0.36356576E-01 0.46216053E+03</pdfrwt>
<totfact> 0.64201052E+04</totfact>
</mgrwt>
</event>
<event>
 7    0  0.4709932E-002  0.4469648E+03  0.7546771E-02  0.1028631E+00
         21   -1    0    0  502  501  0.00000000000E+00  0.00000000000E+00  0.83506485323E+02  0.83506485323E+02  0.00000000000E+00 0.  1.
         21   -1    0    0  501  502 -0.00000000000E+00 -0.00000000000E+00 -0.59808992555E+03  0.59808992555E+03  0.00000000000E+00 0.  1.
      99926    2    1    2    0    0  0.00000000000E+00  0.00000000000E+00 -0.51458344023E+03  0.68159641088E+03  0.44696482005E+03 0.  0.
      99925    2    3    3    0    0  0.25574691913E+02  0.35787372484E+02 -0.47233004727E+03  0.54242867678E+03  0.26305587799E+03 0.  0.
         25    1    4    4    0    0  0.69627729220E+01  0.56787315938E+02 -0.22148333021E+03  0.26072140902E+03  0.12509000000E+03 0.  0.
         25    1    4    4    0    0  0.18611918991E+02 -0.20999943454E+02 -0.25084671706E+03  0.28170726777E+03  0.12509000000E+03 0.  0.
         25    1    3    3    0    0 -0.25574691913E+02 -0.35787372484E+02 -0.42253392961E+02  0.13916773409E+03  0.12509000000E+03 0.  0.
<mgrwt>
<rscale>  2 0.44696482E+03</rscale>
<asrwt>0</asrwt>
<pdfrwt beam="1">  1       21 0.12280365E-01 0.44696482E+03</pdfrwt>
<pdfrwt beam="2">  1       21 0.87954403E-01 0.44696482E+03</pdfrwt>
<totfact> 0.57464078E+04</totfact>
</mgrwt>
</event>
<event>
 7    0  0.4709932E-002  0.4620884E+03  0.7546771E-02  0.1024177E+00
         21   -1    0    0  502  501  0.00000000000E+00  0.00000000000E+00  0.39096268509E+03  0.39096268509E+03  0.00000000000E+00 0. -1.
         21   -1    0    0  501  502 -0.00000000000E+00 -0.00000000000E+00 -0.13653840512E+03  0.13653840512E+03  0.00000000000E+00 0. -1.
      99926    2    1    2    0    0  0.00000000000E+00  0.71054273576E-14  0.25442427997E+03  0.52750109022E+03  0.46208839624E+03 0.  0.
      99925    2    3    3    0    0  0.95541671931E+02  0.60359677504E+02  0.20390682553E+03  0.35151522985E+03  0.26308451414E+03 0.  0.
         25    1    3    3    0    0 -0.95541671931E+02 -0.60359677504E+02  0.50517454447E+02  0.17598586036E+03  0.12509000000E+03 0.  0.
         25    1    4    4    0    0  0.27891873138E+02 -0.56389342563E+01  0.10827205435E+03  0.16786929445E+03  0.12509000000E+03 0.  0.
         25    1    4    4    0    0  0.67649798793E+02  0.65998611760E+02  0.95634771175E+02  0.18364593540E+03  0.12509000000E+03 0.  0.
<mgrwt>
<rscale>  2 0.46208840E+03</rscale>
<asrwt>0</asrwt>
<pdfrwt beam="1">  1       21 0.57494512E-01 0.46208840E+03</pdfrwt>
<pdfrwt beam="2">  1       21 0.20079177E-01 0.46208840E+03</pdfrwt>
<totfact> 0.59936416E+04</totfact>
</mgrwt>
</event>
<event>
 7    0  0.4709932E-002  0.4545943E+03  0.7546771E-02  0.1026361E+00
         21   -1    0    0  502  501  0.00000000000E+00  0.00000000000E+00  0.72286078054E+02  0.72286078054E+02  0.00000000000E+00 0.  1.
         21   -1    0    0  501  502 -0.00000000000E+00 -0.00000000000E+00 -0.71471559361E+03  0.71471559361E+03  0.00000000000E+00 0.  1.
      99926    2    1    2    0    0  0.00000000000E+00  0.00000000000E+00 -0.64242951555E+03  0.78700167166E+03  0.45459426827E+03 0.  0.
      99925    2    3    3    0    0 -0.66335992940E+02 -0.55784354935E+02 -0.52930002652E+03  0.59737533487E+03  0.26303310519E+03 0.  0.
         25    1    4    4    0    0 -0.53596899597E+01  0.44145872540E+01 -0.23443736627E+03  0.26581309535E+03  0.12509000000E+03 0.  0.
         25    1    3    3    0    0  0.66335992940E+02  0.55784354935E+02 -0.11312948903E+03  0.18962633679E+03  0.12509000000E+03 0.  0.
         25    1    4    4    0    0 -0.60976302981E+02 -0.60198942189E+02 -0.29486266025E+03  0.33156223952E+03  0.12509000000E+03 0.  0.
<mgrwt>
<rscale>  2 0.45459427E+03</rscale>
<asrwt>0</asrwt>
<pdfrwt beam="1">  1       21 0.10630305E-01 0.45459427E+03</pdfrwt>
<pdfrwt beam="2">  1       21 0.10510524E+00 0.45459427E+03</pdfrwt>
<totfact> 0.48554412E+04</totfact>
</mgrwt>
</event>
<event>
 7    0  0.4709932E-002  0.4564261E+03  0.7546771E-02  0.1025823E+00
         21   -1    0    0  502  501  0.00000000000E+00  0.00000000000E+00  0.14944692028E+03  0.14944692028E+03  0.00000000000E+00 0.  1.
         21   -1    0    0  501  502 -0.00000000000E+00 -0.00000000000E+00 -0.34849289884E+03  0.34849289884E+03  0.00000000000E+00 0.  1.
      99926    2    1    2    0    0 -0.17763568394E-14  0.00000000000E+00 -0.19904597855E+03  0.49793981912E+03  0.45642607494E+03 0.  0.
      99925    2    3    3    0    0  0.11512542860E+02 -0.10171096574E+03 -0.18093781030E+03  0.33529581200E+03  0.26307248270E+03 0.  0.
         25    1    4    4    0    0  0.13075087691E+02 -0.26646809525E+02 -0.12420539654E+03  0.17876101087E+03  0.12509000000E+03 0.  0.
         25    1    3    3    0    0 -0.11512542860E+02  0.10171096574E+03 -0.18108168251E+02  0.16264400712E+03  0.12509000000E+03 0.  0.
         25    1    4    4    0    0 -0.15625448310E+01 -0.75064156216E+02 -0.56732413761E+02  0.15653480113E+03  0.12509000000E+03 0.  0.
<mgrwt>
<rscale>  2 0.45642607E+03</rscale>
<asrwt>0</asrwt>
<pdfrwt beam="1">  1       21 0.21977488E-01 0.45642607E+03</pdfrwt>
<pdfrwt beam="2">  1       21 0.51248956E-01 0.45642607E+03</pdfrwt>
<totfact> 0.64680303E+04</totfact>
</mgrwt>
</event>
<event>
 7    0  0.4709932E-002  0.4618152E+03  0.7546771E-02  0.1024256E+00
         21   -1    0    0  502  501  0.00000000000E+00  0.00000000000E+00  0.12524700291E+03  0.12524700291E+03  0.00000000000E+00 0.  1.
         21   -1    0    0  501  502 -0.00000000000E+00 -0.00000000000E+00 -0.42570538876E+03  0.42570538876E+03  0.00000000000E+00 0.  1.
      99926    2    1    2    0    0  0.14210854715E-13  0.00000000000E+00 -0.30045838585E+03  0.55095239167E+03  0.46181521875E+03 0.  0.
      99925    2    3    3    0    0  0.11493476885E+03 -0.12486774336E+02 -0.15293878478E+03  0.32561828102E+03  0.26319398250E+03 0.  0.
         25    1    4    4    0    0  0.18982116927E+02 -0.16709115888E+02 -0.48821042123E+02  0.13664010235E+03  0.12509000000E+03 0.  0.
         25    1    3    3    0    0 -0.11493476885E+03  0.12486774336E+02 -0.14751960107E+03  0.22533411065E+03  0.12509000000E+03 0.  0.
         25    1    4    4    0    0  0.95952651919E+02  0.42223415521E+01 -0.10411774265E+03  0.18897817867E+03  0.12509000000E+03 0.  0.
<mgrwt>
<rscale>  2 0.46181522E+03</rscale>
<asrwt>0</asrwt>
<pdfrwt beam="1">  1       21 0.18418677E-01 0.46181522E+03</pdfrwt>
<pdfrwt beam="2">  1       21 0.62603732E-01 0.46181522E+03</pdfrwt>
<totfact> 0.58580424E+04</totfact>
</mgrwt>
</event>
<event>
 7    0  0.4709932E-002  0.4468590E+03  0.7546771E-02  0.1028663E+00
         21   -1    0    0  502  501  0.00000000000E+00  0.00000000000E+00  0.13667826279E+03  0.13667826279E+03  0.00000000000E+00 0.  1.
         21   -1    0    0  501  502 -0.00000000000E+00 -0.00000000000E+00 -0.36524268864E+03  0.36524268864E+03  0.00000000000E+00 0.  1.
      99926    2    1    2    0    0  0.00000000000E+00  0.00000000000E+00 -0.22856442585E+03  0.50192095143E+03  0.44685897632E+03 0.  0.
      99925    2    3    3    0    0  0.58918473768E+02  0.72470048064E+02 -0.19934642284E+03  0.34309874197E+03  0.26316241378E+03 0.  0.
         25    1    3    3    0    0 -0.58918473768E+02 -0.72470048064E+02 -0.29218003010E+02  0.15882220946E+03  0.12509000000E+03 0.  0.
         25    1    4    4    0    0  0.76660654388E+01  0.52073080429E+02 -0.61643580198E+02  0.14905640994E+03  0.12509000000E+03 0.  0.
         25    1    4    4    0    0  0.51252408329E+02  0.20396967635E+02 -0.13770284264E+03  0.19404233203E+03  0.12509000000E+03 0.  0.
<mgrwt>
<rscale>  2 0.44685898E+03</rscale>
<asrwt>0</asrwt>
<pdfrwt beam="1">  1       21 0.20099745E-01 0.44685898E+03</pdfrwt>
<pdfrwt beam="2">  1       21 0.53712159E-01 0.44685898E+03</pdfrwt>
<totfact> 0.69520559E+04</totfact>
</mgrwt>
</event>
<event>
 7    0  0.4709932E-002  0.4543844E+03  0.7546771E-02  0.1026423E+00
         21   -1    0    0  502  501  0.00000000000E+00  0.00000000000E+00  0.15538571465E+04  0.15538571465E+04  0.00000000000E+00 0. -1.
         21   -1    0    0  501  502 -0.00000000000E+00 -0.00000000000E+00 -0.33218173155E+02  0.33218173155E+02  0.00000000000E+00 0. -1.
      99926    2    1    2    0    0  0.71054273576E-14  0.00000000000E+00  0.15206389733E+04  0.15870753196E+04  0.45438440004E+03 0.  0.
      99925    2    3    3    0    0  0.62037792476E+02 -0.80533355136E+02  0.79563272918E+03  0.84436684983E+03  0.26379846161E+03 0.  0.
         25    1    4    4    0    0  0.71326482384E+02 -0.33675057555E+02  0.38333289267E+03  0.41086870323E+03  0.12509000000E+03 0.  0.
         25    1    3    3    0    0 -0.62037792476E+02  0.80533355136E+02  0.72500624414E+03  0.74270846981E+03  0.12509000000E+03 0.  0.
         25    1    4    4    0    0 -0.92886899081E+01 -0.46858297581E+02  0.41229983651E+03  0.43349814660E+03  0.12509000000E+03 0.  0.
<mgrwt>
<rscale>  2 0.45438440E+03</rscale>
<asrwt>0</asrwt>
<pdfrwt beam="1">  1       21 0.22850836E+00 0.45438440E+03</pdfrwt>
<pdfrwt beam="2">  1       21 0.48850265E-02 0.45438440E+03</pdfrwt>
<totfact> 0.21827524E+04</totfact>
</mgrwt>
</event>
<event>
 7    0  0.4709932E-002  0.4489249E+03  0.7546771E-02  0.1028043E+00
         21   -1    0    0  502  501  0.00000000000E+00  0.00000000000E+00  0.72204001332E+02  0.72204001332E+02  0.00000000000E+00 0. -1.
         21   -1    0    0  501  502 -0.00000000000E+00 -0.00000000000E+00 -0.69779237801E+03  0.69779237801E+03  0.00000000000E+00 0. -1.
      99926    2    1    2    0    0 -0.17763568394E-14  0.00000000000E+00 -0.62558837667E+03  0.76999637934E+03  0.44892494602E+03 0.  0.
      99925    2    3    3    0    0  0.33101024925E+01  0.98151722407E+02 -0.47043862641E+03  0.54781701374E+03  0.26295676819E+03 0.  0.
         25    1    3    3    0    0 -0.33101024925E+01 -0.98151722407E+02 -0.15514975026E+03  0.22217936559E+03  0.12509000000E+03 0.  0.
         25    1    4    4    0    0  0.34387888187E+02  0.74102067769E+02 -0.24081514394E+03  0.28339563326E+03  0.12509000000E+03 0.  0.
         25    1    4    4    0    0 -0.31077785694E+02  0.24049654638E+02 -0.22962348248E+03  0.26442138048E+03  0.12509000000E+03 0.  0.
<mgrwt>
<rscale>  2 0.44892495E+03</rscale>
<asrwt>0</asrwt>
<pdfrwt beam="1">  1       21 0.10618236E-01 0.44892495E+03</pdfrwt>
<pdfrwt beam="2">  1       21 0.10261652E+00 0.44892495E+03</pdfrwt>
<totfact> 0.51670719E+04</totfact>
</mgrwt>
</event>
<event>
 7    0  0.4709932E-002  0.4542805E+03  0.7546771E-02  0.1026453E+00
         21   -1    0    0  502  501  0.00000000000E+00  0.00000000000E+00  0.97140471164E+03  0.97140471164E+03  0.00000000000E+00 0. -1.
         21   -1    0    0  501  502 -0.00000000000E+00 -0.00000000000E+00 -0.53111438736E+02  0.53111438736E+02  0.00000000000E+00 0. -1.
      99926    2    1    2    0    0  0.14210854715E-13  0.17763568394E-14  0.91829327290E+03  0.10245161504E+04  0.45428053812E+03 0.  0.
      99925    2    3    3    0    0 -0.10688433866E+03  0.10377239245E+02  0.50301286640E+03  0.57770827996E+03  0.26304555502E+03 0.  0.
         25    1    4    4    0    0 -0.56999396750E+02 -0.26269336614E+02  0.30362165803E+03  0.33432413703E+03  0.12509000000E+03 0.  0.
         25    1    3    3    0    0  0.10688433866E+03 -0.10377239245E+02  0.41528040650E+03  0.44680787042E+03  0.12509000000E+03 0.  0.
         25    1    4    4    0    0 -0.49884941909E+02  0.36646575859E+02  0.19939120837E+03  0.24338414293E+03  0.12509000000E+03 0.  0.
<mgrwt>
<rscale>  2 0.45428054E+03</rscale>
<asrwt>0</asrwt>
<pdfrwt beam="1">  1       21 0.14285362E+00 0.45428054E+03</pdfrwt>
<pdfrwt beam="2">  1       21 0.78105063E-02 0.45428054E+03</pdfrwt>
<totfact> 0.38442067E+04</totfact>
</mgrwt>
</event>
<event>
 7    0  0.4709932E-002  0.4606011E+03  0.7546771E-02  0.1024607E+00
         21   -1    0    0  502  501  0.00000000000E+00  0.00000000000E+00  0.21225005450E+03  0.21225005450E+03  0.00000000000E+00 0. -1.
         21   -1    0    0  501  502 -0.00000000000E+00 -0.00000000000E+00 -0.24988611673E+03  0.24988611673E+03  0.00000000000E+00 0. -1.
      99926    2    1    2    0    0  0.88817841970E-15  0.00000000000E+00 -0.37636062223E+02  0.46213617123E+03  0.46060109377E+03 0.  0.
      99925    2    3    3    0    0 -0.17982777332E+01  0.76150404452E+02 -0.11443409390E+03  0.29676518324E+03  0.26300626273E+03 0.  0.
         25    1    4    4    0    0 -0.39395947646E+02  0.25867761696E+02 -0.61258926346E+02  0.14704198701E+03  0.12509000000E+03 0.  0.
         25    1    4    4    0    0  0.37597669912E+02  0.50282642756E+02 -0.53175167551E+02  0.14972319623E+03  0.12509000000E+03 0.  0.
         25    1    3    3    0    0  0.17982777332E+01 -0.76150404452E+02  0.76798031675E+02  0.16537098799E+03  0.12509000000E+03 0.  0.
<mgrwt>
<rscale>  2 0.46060109E+03</rscale>
<asrwt>0</asrwt>
<pdfrwt beam="1">  1       21 0.31213244E-01 0.46060109E+03</pdfrwt>
<pdfrwt beam="2">  1       21 0.36747958E-01 0.46060109E+03</pdfrwt>
<totfact> 0.65069272E+04</totfact>
</mgrwt>
</event>
<event>
 7    0  0.4709932E-002  0.4520403E+03  0.7546771E-02  0.1027115E+00
         21   -1    0    0  502  501  0.00000000000E+00  0.00000000000E+00  0.76958166398E+03  0.76958166398E+03  0.00000000000E+00 0. -1.
         21   -1    0    0  501  502 -0.00000000000E+00 -0.00000000000E+00 -0.66380371509E+02  0.66380371509E+02  0.00000000000E+00 0. -1.
      99926    2    1    2    0    0  0.00000000000E+00  0.00000000000E+00  0.70320129247E+03  0.83596203549E+03  0.45204033786E+03 0.  0.
      99925    2    3    3    0    0 -0.49966892724E+02  0.98175145441E+02  0.43324826511E+03  0.51869685519E+03  0.26307283936E+03 0.  0.
         25    1    4    4    0    0 -0.62720155860E+02  0.37701151239E+02  0.23960097071E+03  0.28002022788E+03  0.12509000000E+03 0.  0.
         25    1    4    4    0    0  0.12753263135E+02  0.60473994202E+02  0.19364729440E+03  0.23867662731E+03  0.12509000000E+03 0.  0.
         25    1    3    3    0    0  0.49966892724E+02 -0.98175145441E+02  0.26995302737E+03  0.31726518031E+03  0.12509000000E+03 0.  0.
<mgrwt>
<rscale>  2 0.45204034E+03</rscale>
<asrwt>0</asrwt>
<pdfrwt beam="1">  1       21 0.11317377E+00 0.45204034E+03</pdfrwt>
<pdfrwt beam="2">  1       21 0.97618198E-02 0.45204034E+03</pdfrwt>
<totfact> 0.47159589E+04</totfact>
</mgrwt>
</event>
<event>
 7    0  0.4709932E-002  0.4481020E+03  0.7546771E-02  0.1028290E+00
         21   -1    0    0  502  501  0.00000000000E+00  0.00000000000E+00  0.93664989262E+02  0.93664989262E+02  0.00000000000E+00 0. -1.
         21   -1    0    0  501  502 -0.00000000000E+00 -0.00000000000E+00 -0.53594050495E+03  0.53594050495E+03  0.00000000000E+00 0. -1.
      99926    2    1    2    0    0  0.00000000000E+00  0.14210854715E-13 -0.44227551568E+03  0.62960549421E+03  0.44810204927E+03 0.  0.
      99925    2    3    3    0    0 -0.31962035954E+02 -0.83959699462E+02 -0.36084041309E+03  0.45539301787E+03  0.26288057010E+03 0.  0.
         25    1    3    3    0    0  0.31962035954E+02  0.83959699462E+02 -0.81435102595E+02  0.17421247634E+03  0.12509000000E+03 0.  0.
         25    1    4    4    0    0 -0.46492238853E+02 -0.15484747219E+02 -0.18120508355E+03  0.22557503424E+03  0.12509000000E+03 0.  0.
         25    1    4    4    0    0  0.14530202898E+02 -0.68474952243E+02 -0.17963532954E+03  0.22981798363E+03  0.12509000000E+03 0.  0.
<mgrwt>
<rscale>  2 0.44810205E+03</rscale>
<asrwt>0</asrwt>
<pdfrwt beam="1">  1       21 0.13774263E-01 0.44810205E+03</pdfrwt>
<pdfrwt beam="2">  1       21 0.78814780E-01 0.44810205E+03</pdfrwt>
<totfact> 0.60098141E+04</totfact>
</mgrwt>
</event>
<event>
 7    0  0.4709932E-002  0.4541856E+03  0.7546771E-02  0.1026481E+00
         21   -1    0    0  502  501  0.00000000000E+00  0.00000000000E+00  0.13987369017E+03  0.13987369017E+03  0.00000000000E+00 0. -1.
         21   -1    0    0  501  502 -0.00000000000E+00 -0.00000000000E+00 -0.36869789490E+03  0.36869789490E+03  0.00000000000E+00 0. -1.
      99926    2    1    2    0    0  0.00000000000E+00  0.00000000000E+00 -0.22882420473E+03  0.50857158508E+03  0.45418557934E+03 0.  0.
      99925    2    3    3    0    0 -0.12089606329E+02 -0.86042071056E+02 -0.64222713859E+02  0.28431602669E+03  0.26298602526E+03 0.  0.
         25    1    4    4    0    0  0.10943140714E+01 -0.80138963292E+01 -0.52277299266E+02  0.13581547841E+03  0.12509000000E+03 0.  0.
         25    1    3    3    0    0  0.12089606329E+02  0.86042071056E+02 -0.16460149087E+03  0.22425555839E+03  0.12509000000E+03 0.  0.
         25    1    4    4    0    0 -0.13183920400E+02 -0.78028174727E+02 -0.11945414593E+02  0.14850054828E+03  0.12509000000E+03 0.  0.
<mgrwt>
<rscale>  2 0.45418558E+03</rscale>
<asrwt>0</asrwt>
<pdfrwt beam="1">  1       21 0.20569661E-01 0.45418558E+03</pdfrwt>
<pdfrwt beam="2">  1       21 0.54220278E-01 0.45418558E+03</pdfrwt>
<totfact> 0.65092297E+04</totfact>
</mgrwt>
</event>
<event>
 7    0  0.4709932E-002  0.4811444E+03  0.7546771E-02  0.1018821E+00
         21   -1    0    0  502  501  0.00000000000E+00  0.00000000000E+00  0.40059432267E+03  0.40059432267E+03  0.00000000000E+00 0. -1.
         21   -1    0    0  501  502 -0.00000000000E+00 -0.00000000000E+00 -0.14447281089E+03  0.14447281089E+03  0.00000000000E+00 0. -1.
      99926    2    1    2    0    0  0.53290705182E-14 -0.28421709430E-13  0.25612151177E+03  0.54506713356E+03  0.48114441833E+03 0.  0.
      99925    2    3    3    0    0 -0.10006396331E+02  0.13441487226E+03  0.18001749203E+03  0.34605252160E+03  0.26301818267E+03 0.  0.
         25    1    4    4    0    0 -0.39470452995E+02  0.88085863476E+02  0.82802169618E+02  0.17838369712E+03  0.12509000000E+03 0.  0.
         25    1    3    3    0    0  0.10006396331E+02 -0.13441487226E+03  0.76104019741E+02  0.19901461196E+03  0.12509000000E+03 0.  0.
         25    1    4    4    0    0  0.29464056665E+02  0.46329008787E+02  0.97215322416E+02  0.16766882448E+03  0.12509000000E+03 0.  0.
<mgrwt>
<rscale>  2 0.48114442E+03</rscale>
<asrwt>0</asrwt>
<pdfrwt beam="1">  1       21 0.58910930E-01 0.48114442E+03</pdfrwt>
<pdfrwt beam="2">  1       21 0.21246002E-01 0.48114442E+03</pdfrwt>
<totfact> 0.50821308E+04</totfact>
</mgrwt>
</event>
<event>
 7    0  0.4709932E-002  0.4515954E+03  0.7546771E-02  0.1027247E+00
         21   -1    0    0  502  501  0.00000000000E+00  0.00000000000E+00  0.34750853057E+03  0.34750853057E+03  0.00000000000E+00 0.  1.
         21   -1    0    0  501  502 -0.00000000000E+00 -0.00000000000E+00 -0.14671466764E+03  0.14671466764E+03  0.00000000000E+00 0.  1.
      99926    2    1    2    0    0  0.00000000000E+00  0.00000000000E+00  0.20079386293E+03  0.49422319820E+03  0.45159538777E+03 0.  0.
      99925    2    3    3    0    0 -0.16175401825E+02 -0.18401607162E+02  0.24407186381E+03  0.35960983991E+03  0.26295988190E+03 0.  0.
         25    1    4    4    0    0  0.65877509404E+01 -0.11786457790E+02  0.17264518719E+03  0.21362628071E+03  0.12509000000E+03 0.  0.
         25    1    4    4    0    0 -0.22763152766E+02 -0.66151493722E+01  0.71426676616E+02  0.14598355920E+03  0.12509000000E+03 0.  0.
         25    1    3    3    0    0  0.16175401825E+02  0.18401607162E+02 -0.43278000877E+02  0.13461335829E+03  0.12509000000E+03 0.  0.
<mgrwt>
<rscale>  2 0.45159539E+03</rscale>
<asrwt>0</asrwt>
<pdfrwt beam="1">  1       21 0.51104196E-01 0.45159539E+03</pdfrwt>
<pdfrwt beam="2">  1       21 0.21575686E-01 0.45159539E+03</pdfrwt>
<totfact> 0.67483982E+04</totfact>
</mgrwt>
</event>
<event>
 7    0  0.4709932E-002  0.4856604E+03  0.7546771E-02  0.1017591E+00
         21   -1    0    0  502  501  0.00000000000E+00  0.00000000000E+00  0.13825912793E+03  0.13825912793E+03  0.00000000000E+00 0.  1.
         21   -1    0    0  501  502 -0.00000000000E+00 -0.00000000000E+00 -0.42649265239E+03  0.42649265239E+03  0.00000000000E+00 0.  1.
      99926    2    1    2    0    0  0.00000000000E+00  0.00000000000E+00 -0.28823352446E+03  0.56475178031E+03  0.48566038416E+03 0.  0.
      99925    2    3    3    0    0 -0.82634383450E+02 -0.99611539770E+02 -0.11488175942E+03  0.31485331548E+03  0.26302830919E+03 0.  0.
         25    1    4    4    0    0 -0.13388589056E+02 -0.72376166973E+02 -0.37008742464E+02  0.14978223854E+03  0.12509000000E+03 0.  0.
         25    1    4    4    0    0 -0.69245794395E+02 -0.27235372797E+02 -0.77873016957E+02  0.16507107694E+03  0.12509000000E+03 0.  0.
         25    1    3    3    0    0  0.82634383450E+02  0.99611539770E+02 -0.17335176504E+03  0.24989846484E+03  0.12509000000E+03 0.  0.
<mgrwt>
<rscale>  2 0.48566038E+03</rscale>
<asrwt>0</asrwt>
<pdfrwt beam="1">  1       21 0.20332225E-01 0.48566038E+03</pdfrwt>
<pdfrwt beam="2">  1       21 0.62719507E-01 0.48566038E+03</pdfrwt>
<totfact> 0.48118586E+04</totfact>
</mgrwt>
</event>
<event>
 7    0  0.4709932E-002  0.4568576E+03  0.7546771E-02  0.1025697E+00
         21   -1    0    0  502  501  0.00000000000E+00  0.00000000000E+00  0.26495864655E+03  0.26495864655E+03  0.00000000000E+00 0. -1.
         21   -1    0    0  501  502 -0.00000000000E+00 -0.00000000000E+00 -0.19693529334E+03  0.19693529334E+03  0.00000000000E+00 0. -1.
      99926    2    1    2    0    0  0.71054273576E-14 -0.71054273576E-14  0.68023353212E+02  0.46189393990E+03  0.45685756547E+03 0.  0.
      99925    2    3    3    0    0  0.53306799657E+02 -0.48767259292E+02 -0.47494823040E+02  0.27692957140E+03  0.26308623839E+03 0.  0.
         25    1    3    3    0    0 -0.53306799657E+02  0.48767259292E+02  0.11551817625E+03  0.18496436850E+03  0.12509000000E+03 0.  0.
         25    1    4    4    0    0  0.23719461945E+02  0.16862507962E+02 -0.19257050746E+02  0.12986646662E+03  0.12509000000E+03 0.  0.
         25    1    4    4    0    0  0.29587337713E+02 -0.65629767254E+02 -0.28237772295E+02  0.14706310478E+03  0.12509000000E+03 0.  0.
<mgrwt>
<rscale>  2 0.45685757E+03</rscale>
<asrwt>0</asrwt>
<pdfrwt beam="1">  1       21 0.38964507E-01 0.45685757E+03</pdfrwt>
<pdfrwt beam="2">  1       21 0.28961073E-01 0.45685757E+03</pdfrwt>
<totfact> 0.67044091E+04</totfact>
</mgrwt>
</event>
<event>
 7    0  0.4709932E-002  0.4554456E+03  0.7546771E-02  0.1026110E+00
         21   -1    0    0  502  501  0.00000000000E+00  0.00000000000E+00  0.65094365279E+02  0.65094365279E+02  0.00000000000E+00 0. -1.
         21   -1    0    0  501  502 -0.00000000000E+00 -0.00000000000E+00 -0.79665391115E+03  0.79665391115E+03  0.00000000000E+00 0. -1.
      99926    2    1    2    0    0  0.00000000000E+00  0.00000000000E+00 -0.73155954587E+03  0.86174827643E+03  0.45544563098E+03 0.  0.
      99925    2    3    3    0    0  0.50470324602E+02 -0.93421379991E+02 -0.38397326249E+03  0.47738056135E+03  0.26302457326E+03 0.  0.
         25    1    4    4    0    0  0.41155749229E+02 -0.83141293949E+01 -0.17186312302E+03  0.21667339845E+03  0.12509000000E+03 0.  0.
         25    1    3    3    0    0 -0.50470324602E+02  0.93421379991E+02 -0.34758628338E+03  0.38436771509E+03  0.12509000000E+03 0.  0.
         25    1    4    4    0    0  0.93145753722E+01 -0.85107250596E+02 -0.21211013947E+03  0.26070716290E+03  0.12509000000E+03 0.  0.
<mgrwt>
<rscale>  2 0.45544563E+03</rscale>
<asrwt>0</asrwt>
<pdfrwt beam="1">  1       21 0.95727019E-02 0.45544563E+03</pdfrwt>
<pdfrwt beam="2">  1       21 0.11715497E+00 0.45544563E+03</pdfrwt>
<totfact> 0.44761624E+04</totfact>
</mgrwt>
</event>
<event>
 7    0  0.4709932E-002  0.4525448E+03  0.7546771E-02  0.1026966E+00
         21   -1    0    0  502  501  0.00000000000E+00  0.00000000000E+00  0.96523403495E+03  0.96523403495E+03  0.00000000000E+00 0. -1.
         21   -1    0    0  501  502 -0.00000000000E+00 -0.00000000000E+00 -0.53043306279E+02  0.53043306279E+02  0.00000000000E+00 0. -1.
      99926    2    1    2    0    0 -0.71054273576E-14  0.14210854715E-13  0.91219072867E+03  0.10182773412E+04  0.45254482451E+03 0.  0.
      99925    2    3    3    0    0  0.41963533165E+02 -0.92714501592E+02  0.47383256605E+03  0.55119886414E+03  0.26257564674E+03 0.  0.
         25    1    3    3    0    0 -0.41963533165E+02  0.92714501592E+02  0.43835816262E+03  0.46707847708E+03  0.12509000000E+03 0.  0.
         25    1    4    4    0    0  0.46738934271E+02 -0.57075923930E+02  0.19174750432E+03  0.24053441039E+03  0.12509000000E+03 0.  0.
         25    1    4    4    0    0 -0.47754011060E+01 -0.35638577661E+02  0.28208506174E+03  0.31066445376E+03  0.12509000000E+03 0.  0.
<mgrwt>
<rscale>  2 0.45254482E+03</rscale>
<asrwt>0</asrwt>
<pdfrwt beam="1">  1       21 0.14194617E+00 0.45254482E+03</pdfrwt>
<pdfrwt beam="2">  1       21 0.78004868E-02 0.45254482E+03</pdfrwt>
<totfact> 0.39209586E+04</totfact>
</mgrwt>
</event>
<event>
 7    0  0.4709932E-002  0.4171757E+03  0.7546771E-02  0.1037989E+00
         21   -1    0    0  502  501  0.00000000000E+00  0.00000000000E+00  0.33750992211E+02  0.33750992211E+02  0.00000000000E+00 0.  1.
         21   -1    0    0  501  502 -0.00000000000E+00 -0.00000000000E+00 -0.12891144680E+04  0.12891144680E+04  0.00000000000E+00 0.  1.
      99926    2    1    2    0    0  0.00000000000E+00 -0.71054273576E-14 -0.12553634758E+04  0.13228654602E+04  0.41717570575E+03 0.  0.
      99925    2    3    3    0    0  0.33190117266E+02  0.59069942176E+02 -0.90090739645E+03  0.94092637837E+03  0.26290201708E+03 0.  0.
         25    1    4    4    0    0  0.14792169798E+02  0.28416872212E+02 -0.30909555536E+03  0.33498342848E+03  0.12509000000E+03 0.  0.
         25    1    3    3    0    0 -0.33190117266E+02 -0.59069942176E+02 -0.35445607931E+03  0.38193908181E+03  0.12509000000E+03 0.  0.
         25    1    4    4    0    0  0.18397947468E+02  0.30653069964E+02 -0.59181184109E+03  0.60594294989E+03  0.12509000000E+03 0.  0.
<mgrwt>
<rscale>  2 0.41717571E+03</rscale>
<asrwt>0</asrwt>
<pdfrwt beam="1">  1       21 0.49633817E-02 0.41717571E+03</pdfrwt>
<pdfrwt beam="2">  1       21 0.18957564E+00 0.41717571E+03</pdfrwt>
<totfact> 0.38631364E+04</totfact>
</mgrwt>
</event>
<event>
 7    0  0.4709932E-002  0.4529055E+03  0.7546771E-02  0.1026859E+00
         21   -1    0    0  502  501  0.00000000000E+00  0.00000000000E+00  0.54746959140E+03  0.54746959140E+03  0.00000000000E+00 0. -1.
         21   -1    0    0  501  502 -0.00000000000E+00 -0.00000000000E+00 -0.93668848445E+02  0.93668848445E+02  0.00000000000E+00 0. -1.
      99926    2    1    2    0    0  0.35527136788E-14  0.00000000000E+00  0.45380074295E+03  0.64113843984E+03  0.45290549206E+03 0.  0.
      99925    2    3    3    0    0 -0.26085308539E+02 -0.95551535578E+02  0.21492483079E+03  0.35387593135E+03  0.26310635231E+03 0.  0.
         25    1    4    4    0    0 -0.23273276556E+02 -0.77194353067E+01  0.11097945993E+03  0.16901237738E+03  0.12509000000E+03 0.  0.
         25    1    3    3    0    0  0.26085308539E+02  0.95551535578E+02  0.23887591216E+03  0.28726250849E+03  0.12509000000E+03 0.  0.
         25    1    4    4    0    0 -0.28120319829E+01 -0.87832100271E+02  0.10394537086E+03  0.18486355397E+03  0.12509000000E+03 0.  0.
<mgrwt>
<rscale>  2 0.45290549E+03</rscale>
<asrwt>0</asrwt>
<pdfrwt beam="1">  1       21 0.80510233E-01 0.45290549E+03</pdfrwt>
<pdfrwt beam="2">  1       21 0.13774831E-01 0.45290549E+03</pdfrwt>
<totfact> 0.57153705E+04</totfact>
</mgrwt>
</event>
<event>
 7    0  0.4709932E-002  0.4520455E+03  0.7546771E-02  0.1027114E+00
         21   -1    0    0  502  501  0.00000000000E+00  0.00000000000E+00  0.77781013857E+03  0.77781013857E+03  0.00000000000E+00 0. -1.
         21   -1    0    0  501  502 -0.00000000000E+00 -0.00000000000E+00 -0.65679635718E+02  0.65679635718E+02  0.00000000000E+00 0. -1.
      99926    2    1    2    0    0 -0.14210854715E-13 -0.71054273576E-14  0.71213050286E+03  0.84348977429E+03  0.45204551346E+03 0.  0.
      99925    2    3    3    0    0 -0.10488651752E+03  0.33611162870E+02  0.43459699920E+03  0.51975648040E+03  0.26294743842E+03 0.  0.
         25    1    3    3    0    0  0.10488651752E+03 -0.33611162870E+02  0.27753350366E+03  0.32373329390E+03  0.12509000000E+03 0.  0.
         25    1    4    4    0    0 -0.42446765982E+02 -0.73252201163E+01  0.14975398762E+03  0.19982280075E+03  0.12509000000E+03 0.  0.
         25    1    4    4    0    0 -0.62439751536E+02  0.40936382986E+02  0.28484301158E+03  0.31993367964E+03  0.12509000000E+03 0.  0.
<mgrwt>
<rscale>  2 0.45204551E+03</rscale>
<asrwt>0</asrwt>
<pdfrwt beam="1">  1       21 0.11438384E+00 0.45204551E+03</pdfrwt>
<pdfrwt beam="2">  1       21 0.96587705E-02 0.45204551E+03</pdfrwt>
<totfact> 0.46807538E+04</totfact>
</mgrwt>
</event>
<event>
 7    0  0.4709932E-002  0.4592105E+03  0.7546771E-02  0.1025010E+00
         21   -1    0    0  502  501  0.00000000000E+00  0.00000000000E+00  0.96413350953E+02  0.96413350953E+02  0.00000000000E+00 0. -1.
         21   -1    0    0  501  502 -0.00000000000E+00 -0.00000000000E+00 -0.54679744953E+03  0.54679744953E+03  0.00000000000E+00 0. -1.
      99926    2    1    2    0    0  0.00000000000E+00  0.00000000000E+00 -0.45038409858E+03  0.64321080049E+03  0.45921051557E+03 0.  0.
      99925    2    3    3    0    0  0.10888760998E+03 -0.17543532640E+02 -0.22745807718E+03  0.36480856224E+03  0.26302817922E+03 0.  0.
         25    1    4    4    0    0  0.79737416766E+02 -0.27473863122E+02 -0.15797097472E+03  0.21843810506E+03  0.12509000000E+03 0.  0.
         25    1    3    3    0    0 -0.10888760998E+03  0.17543532640E+02 -0.22292602140E+03  0.27840223824E+03  0.12509000000E+03 0.  0.
         25    1    4    4    0    0  0.29150193210E+02  0.99303304819E+01 -0.69487102466E+02  0.14637045719E+03  0.12509000000E+03 0.  0.
<mgrwt>
<rscale>  2 0.45921052E+03</rscale>
<asrwt>0</asrwt>
<pdfrwt beam="1">  1       21 0.14178434E-01 0.45921052E+03</pdfrwt>
<pdfrwt beam="2">  1       21 0.80411390E-01 0.45921052E+03</pdfrwt>
<totfact> 0.54268633E+04</totfact>
</mgrwt>
</event>
<event>
 7    0  0.4709932E-002  0.4589263E+03  0.7546771E-02  0.1025093E+00
         21   -1    0    0  502  501  0.00000000000E+00  0.00000000000E+00  0.99047073614E+03  0.99047073614E+03  0.00000000000E+00 0. -1.
         21   -1    0    0  501  502 -0.00000000000E+00 -0.00000000000E+00 -0.53159907825E+02  0.53159907825E+02  0.00000000000E+00 0. -1.
      99926    2    1    2    0    0 -0.88817841970E-15  0.00000000000E+00  0.93731082832E+03  0.10436306440E+04  0.45892628182E+03 0.  0.
      99925    2    3    3    0    0 -0.36052782183E+01 -0.85070810938E+02  0.76972300564E+03  0.81783598656E+03  0.26292994237E+03 0.  0.
         25    1    4    4    0    0  0.55151237264E+01 -0.60750038026E+01  0.41107878559E+03  0.42976807504E+03  0.12509000000E+03 0.  0.
         25    1    4    4    0    0 -0.91204019447E+01 -0.78995807135E+02  0.35864422005E+03  0.38806791152E+03  0.12509000000E+03 0.  0.
         25    1    3    3    0    0  0.36052782183E+01  0.85070810938E+02  0.16758782268E+03  0.22579465741E+03  0.12509000000E+03 0.  0.
<mgrwt>
<rscale>  2 0.45892628E+03</rscale>
<asrwt>0</asrwt>
<pdfrwt beam="1">  1       21 0.14565745E+00 0.45892628E+03</pdfrwt>
<pdfrwt beam="2">  1       21 0.78176342E-02 0.45892628E+03</pdfrwt>
<totfact> 0.36384027E+04</totfact>
</mgrwt>
</event>
<event>
 7    0  0.4709932E-002  0.4322653E+03  0.7546771E-02  0.1033147E+00
         21   -1    0    0  502  501  0.00000000000E+00  0.00000000000E+00  0.31978680481E+03  0.31978680481E+03  0.00000000000E+00 0. -1.
         21   -1    0    0  501  502 -0.00000000000E+00 -0.00000000000E+00 -0.14607647934E+03  0.14607647934E+03  0.00000000000E+00 0. -1.
      99926    2    1    2    0    0  0.00000000000E+00  0.00000000000E+00  0.17371032547E+03  0.46586328415E+03  0.43226533789E+03 0.  0.
      99925    2    3    3    0    0 -0.53861986653E+02 -0.48827693071E+02  0.54306835981E+02  0.27827341603E+03  0.26306197829E+03 0.  0.
         25    1    4    4    0    0 -0.38738731454E+02  0.14283135060E+02  0.20028435841E+02  0.13324167368E+03  0.12509000000E+03 0.  0.
         25    1    4    4    0    0 -0.15123255199E+02 -0.63110828131E+02  0.34278400140E+02  0.14503174236E+03  0.12509000000E+03 0.  0.
         25    1    3    3    0    0  0.53861986653E+02  0.48827693071E+02  0.11940348949E+03  0.18758986812E+03  0.12509000000E+03 0.  0.
<mgrwt>
<rscale>  2 0.43226534E+03</rscale>
<asrwt>0</asrwt>
<pdfrwt beam="1">  1       21 0.47027471E-01 0.43226534E+03</pdfrwt>
<pdfrwt beam="2">  1       21 0.21481835E-01 0.43226534E+03</pdfrwt>
<totfact> 0.81484428E+04</totfact>
</mgrwt>
</event>
<event>
 7    0  0.4709932E-002  0.4585668E+03  0.7546771E-02  0.1025198E+00
         21   -1    0    0  502  501  0.00000000000E+00  0.00000000000E+00  0.18867238220E+03  0.18867238220E+03  0.00000000000E+00 0. -1.
         21   -1    0    0  501  502 -0.00000000000E+00 -0.00000000000E+00 -0.27863581134E+03  0.27863581134E+03  0.00000000000E+00 0. -1.
      99926    2    1    2    0    0  0.71054273576E-14  0.00000000000E+00 -0.89963429140E+02  0.46730819353E+03  0.45856682083E+03 0.  0.
      99925    2    3    3    0    0 -0.46014391325E+02 -0.48814232924E+02 -0.15341856569E+03  0.31182759668E+03  0.26305710446E+03 0.  0.
         25    1    3    3    0    0  0.46014391325E+02  0.48814232924E+02  0.63455136549E+02  0.15548059686E+03  0.12509000000E+03 0.  0.
         25    1    4    4    0    0 -0.47168833076E+02  0.66831225802E+01 -0.87583852896E+02  0.15996250289E+03  0.12509000000E+03 0.  0.
         25    1    4    4    0    0  0.11544417513E+01 -0.55497355504E+02 -0.65834712792E+02  0.15186509379E+03  0.12509000000E+03 0.  0.
<mgrwt>
<rscale>  2 0.45856682E+03</rscale>
<asrwt>0</asrwt>
<pdfrwt beam="1">  1       21 0.27745939E-01 0.45856682E+03</pdfrwt>
<pdfrwt beam="2">  1       21 0.40975854E-01 0.45856682E+03</pdfrwt>
<totfact> 0.65754966E+04</totfact>
</mgrwt>
</event>
<event>
 7    0  0.4709932E-002  0.4551259E+03  0.7546771E-02  0.1026204E+00
         21   -1    0    0  502  501  0.00000000000E+00  0.00000000000E+00  0.84093428827E+02  0.84093428827E+02  0.00000000000E+00 0.  1.
         21   -1    0    0  501  502 -0.00000000000E+00 -0.00000000000E+00 -0.61580184173E+03  0.61580184173E+03  0.00000000000E+00 0.  1.
      99926    2    1    2    0    0  0.00000000000E+00 -0.71054273576E-14 -0.53170841291E+03  0.69989527056E+03  0.45512586544E+03 0.  0.
      99925    2    3    3    0    0  0.72417377387E+02  0.47670284209E+02 -0.22261356696E+03  0.35536099878E+03  0.26307395673E+03 0.  0.
         25    1    4    4    0    0  0.47659216532E+02  0.42136430083E+02 -0.71320355786E+02  0.15741976023E+03  0.12509000000E+03 0.  0.
         25    1    4    4    0    0  0.24758160855E+02  0.55338541263E+01 -0.15129321118E+03  0.19794123855E+03  0.12509000000E+03 0.  0.
         25    1    3    3    0    0 -0.72417377387E+02 -0.47670284209E+02 -0.30909484594E+03  0.34453427178E+03  0.12509000000E+03 0.  0.
<mgrwt>
<rscale>  2 0.45512587E+03</rscale>
<asrwt>0</asrwt>
<pdfrwt beam="1">  1       21 0.12366680E-01 0.45512587E+03</pdfrwt>
<pdfrwt beam="2">  1       21 0.90559098E-01 0.45512587E+03</pdfrwt>
<totfact> 0.52856266E+04</totfact>
</mgrwt>
</event>
<event>
 7    0  0.4709932E-002  0.4491932E+03  0.7546771E-02  0.1027963E+00
         21   -1    0    0  502  501  0.00000000000E+00  0.00000000000E+00  0.42815939206E+03  0.42815939206E+03  0.00000000000E+00 0. -1.
         21   -1    0    0  501  502 -0.00000000000E+00 -0.00000000000E+00 -0.11781507104E+03  0.11781507104E+03  0.00000000000E+00 0. -1.
      99926    2    1    2    0    0  0.00000000000E+00  0.00000000000E+00  0.31034432102E+03  0.54597446309E+03  0.44919318423E+03 0.  0.
      99925    2    3    3    0    0  0.65859245407E+02 -0.83090700354E+02  0.21878817201E+03  0.35816727150E+03  0.26300955396E+03 0.  0.
         25    1    4    4    0    0  0.21076744189E+01 -0.45533480424E+02  0.13856886265E+03  0.19216289425E+03  0.12509000000E+03 0.  0.
         25    1    4    4    0    0  0.63751570988E+02 -0.37557219930E+02  0.80219309356E+02  0.16600437725E+03  0.12509000000E+03 0.  0.
         25    1    3    3    0    0 -0.65859245407E+02  0.83090700354E+02  0.91556149012E+02  0.18780719159E+03  0.12509000000E+03 0.  0.
<mgrwt>
<rscale>  2 0.44919318E+03</rscale>
<asrwt>0</asrwt>
<pdfrwt beam="1">  1       21 0.62964616E-01 0.44919318E+03</pdfrwt>
<pdfrwt beam="2">  1       21 0.17325746E-01 0.44919318E+03</pdfrwt>
<totfact> 0.65072043E+04</totfact>
</mgrwt>
</event>
<event>
 7    0  0.4709932E-002  0.4470840E+03  0.7546771E-02  0.1028595E+00
         21   -1    0    0  502  501  0.00000000000E+00  0.00000000000E+00  0.34612020486E+02  0.34612020486E+02  0.00000000000E+00 0.  1.
         21   -1    0    0  501  502 -0.00000000000E+00 -0.00000000000E+00 -0.14437477509E+04  0.14437477509E+04  0.00000000000E+00 0.  1.
      99926    2    1    2    0    0  0.35527136788E-14  0.00000000000E+00 -0.14091357304E+04  0.14783597713E+04  0.44708400432E+03 0.  0.
      99925    2    3    3    0    0 -0.31878365853E+02  0.69496557941E+01 -0.56097515769E+03  0.62040383245E+03  0.26295105980E+03 0.  0.
         25    1    3    3    0    0  0.31878365853E+02 -0.69496557941E+01 -0.84816057268E+03  0.85795593889E+03  0.12509000000E+03 0.  0.
         25    1    4    4    0    0  0.22052376455E+02 -0.70346159434E+01 -0.24589547232E+03  0.27685354348E+03  0.12509000000E+03 0.  0.
         25    1    4    4    0    0 -0.53930742308E+02  0.13984271738E+02 -0.31507968537E+03  0.34355028897E+03  0.12509000000E+03 0.  0.
<mgrwt>
<rscale>  2 0.44708400E+03</rscale>
<asrwt>0</asrwt>
<pdfrwt beam="1">  1       21 0.50900032E-02 0.44708400E+03</pdfrwt>
<pdfrwt beam="2">  1       21 0.21231584E+00 0.44708400E+03</pdfrwt>
<totfact> 0.25869045E+04</totfact>
</mgrwt>
</event>
<event>
 7    0  0.4709932E-002  0.4654886E+03  0.7546771E-02  0.1023201E+00
         21   -1    0    0  502  501  0.00000000000E+00  0.00000000000E+00  0.41674466462E+02  0.41674466462E+02  0.00000000000E+00 0.  1.
         21   -1    0    0  501  502 -0.00000000000E+00 -0.00000000000E+00 -0.12998345963E+04  0.12998345963E+04  0.00000000000E+00 0.  1.
      99926    2    1    2    0    0  0.00000000000E+00 -0.71054273576E-14 -0.12581601298E+04  0.13415090627E+04  0.46548861765E+03 0.  0.
      99925    2    3    3    0    0 -0.11077136422E+03  0.50866695234E+02 -0.74147915596E+03  0.79610604418E+03  0.26293683469E+03 0.  0.
         25    1    4    4    0    0 -0.74766474451E+02  0.12282252242E+02 -0.47546427503E+03  0.49744815243E+03  0.12509000000E+03 0.  0.
         25    1    4    4    0    0 -0.36004889770E+02  0.38584442992E+02 -0.26601488093E+03  0.29865789175E+03  0.12509000000E+03 0.  0.
         25    1    3    3    0    0  0.11077136422E+03 -0.50866695234E+02 -0.51668097386E+03  0.54540301857E+03  0.12509000000E+03 0.  0.
<mgrwt>
<rscale>  2 0.46548862E+03</rscale>
<asrwt>0</asrwt>
<pdfrwt beam="1">  1       21 0.61285981E-02 0.46548862E+03</pdfrwt>
<pdfrwt beam="2">  1       21 0.19115214E+00 0.46548862E+03</pdfrwt>
<totfact> 0.25766503E+04</totfact>
</mgrwt>
</event>
<event>
 7    0  0.4709932E-002  0.4604011E+03  0.7546771E-02  0.1024665E+00
         21   -1    0    0  502  501  0.00000000000E+00  0.00000000000E+00  0.12965041869E+03  0.12965041869E+03  0.00000000000E+00 0. -1.
         21   -1    0    0  501  502 -0.00000000000E+00 -0.00000000000E+00 -0.40873208631E+03  0.40873208631E+03  0.00000000000E+00 0. -1.
      99926    2    1    2    0    0  0.00000000000E+00  0.00000000000E+00 -0.27908166763E+03  0.53838250500E+03  0.46040106916E+03 0.  0.
      99925    2    3    3    0    0 -0.17094926088E+02  0.11186149932E+03 -0.21462490939E+03  0.35780727605E+03  0.26297711600E+03 0.  0.
         25    1    4    4    0    0 -0.70300178578E+01  0.66514084494E+02 -0.15945067316E+03  0.21341408074E+03  0.12509000000E+03 0.  0.
         25    1    3    3    0    0  0.17094926088E+02 -0.11186149932E+03 -0.64456758238E+02  0.18057522895E+03  0.12509000000E+03 0.  0.
         25    1    4    4    0    0 -0.10064908231E+02  0.45347414823E+02 -0.55174236224E+02  0.14439319531E+03  0.12509000000E+03 0.  0.
<mgrwt>
<rscale>  2 0.46040107E+03</rscale>
<asrwt>0</asrwt>
<pdfrwt beam="1">  1       21 0.19066238E-01 0.46040107E+03</pdfrwt>
<pdfrwt beam="2">  1       21 0.60107660E-01 0.46040107E+03</pdfrwt>
<totfact> 0.60031572E+04</totfact>
</mgrwt>
</event>
<event>
 7    0  0.4709932E-002  0.4374742E+03  0.7546771E-02  0.1031525E+00
         21   -1    0    0  502  501  0.00000000000E+00  0.00000000000E+00  0.67688163318E+03  0.67688163318E+03  0.00000000000E+00 0.  1.
         21   -1    0    0  501  502 -0.00000000000E+00 -0.00000000000E+00 -0.70685793056E+02  0.70685793056E+02  0.00000000000E+00 0.  1.
      99926    2    1    2    0    0  0.00000000000E+00  0.00000000000E+00  0.60619584012E+03  0.74756742624E+03  0.43747418231E+03 0.  0.
      99925    2    3    3    0    0  0.71615151249E+02 -0.12357091373E+02  0.49450646912E+03  0.56480131534E+03  0.26302556951E+03 0.  0.
         25    1    3    3    0    0 -0.71615151249E+02  0.12357091373E+02  0.11168937101E+03  0.18276611090E+03  0.12509000000E+03 0.  0.
         25    1    4    4    0    0  0.54444444215E+02 -0.23716529670E+02  0.19127424368E+03  0.23613558749E+03  0.12509000000E+03 0.  0.
         25    1    4    4    0    0  0.17170707034E+02  0.11359438296E+02  0.30323222543E+03  0.32866572785E+03  0.12509000000E+03 0.  0.
<mgrwt>
<rscale>  2 0.43747418E+03</rscale>
<asrwt>0</asrwt>
<pdfrwt beam="1">  1       21 0.99541413E-01 0.43747418E+03</pdfrwt>
<pdfrwt beam="2">  1       21 0.10394970E-01 0.43747418E+03</pdfrwt>
<totfact> 0.57978563E+04</totfact>
</mgrwt>
</event>
<event>
 7    0  0.4709932E-002  0.4553607E+03  0.7546771E-02  0.1026135E+00
         21   -1    0    0  502  501  0.00000000000E+00  0.00000000000E+00  0.67702251882E+03  0.67702251882E+03  0.00000000000E+00 0.  1.
         21   -1    0    0  501  502 -0.00000000000E+00 -0.00000000000E+00 -0.76568112382E+02  0.76568112382E+02  0.00000000000E+00 0.  1.
      99926    2    1    2    0    0  0.00000000000E+00  0.00000000000E+00  0.60045440644E+03  0.75359063120E+03  0.45536067598E+03 0.  0.
      99925    2    3    3    0    0 -0.96030598102E+02 -0.26794454342E+02  0.46687796203E+03  0.54519199120E+03  0.26328588508E+03 0.  0.
         25    1    4    4    0    0 -0.44121882372E+01 -0.12795810882E+02  0.20496476757E+03  0.24050210857E+03  0.12509000000E+03 0.  0.
         25    1    3    3    0    0  0.96030598102E+02  0.26794454342E+02  0.13357644441E+03  0.20839864001E+03  0.12509000000E+03 0.  0.
         25    1    4    4    0    0 -0.91618409865E+02 -0.13998643460E+02  0.26191319446E+03  0.30468988263E+03  0.12509000000E+03 0.  0.
<mgrwt>
<rscale>  2 0.45536068E+03</rscale>
<asrwt>0</asrwt>
<pdfrwt beam="1">  1       21 0.99562132E-01 0.45536068E+03</pdfrwt>
<pdfrwt beam="2">  1       21 0.11260017E-01 0.45536068E+03</pdfrwt>
<totfact> 0.49946339E+04</totfact>
</mgrwt>
</event>
<event>
 7    0  0.4709932E-002  0.4528716E+03  0.7546771E-02  0.1026869E+00
         21   -1    0    0  502  501  0.00000000000E+00  0.00000000000E+00  0.71200950155E+03  0.71200950155E+03  0.00000000000E+00 0.  1.
         21   -1    0    0  501  502 -0.00000000000E+00 -0.00000000000E+00 -0.72011905901E+02  0.72011905901E+02  0.00000000000E+00 0.  1.
      99926    2    1    2    0    0  0.71054273576E-14  0.00000000000E+00  0.63999759564E+03  0.78402140745E+03  0.45287155453E+03 0.  0.
      99925    2    3    3    0    0  0.57371214970E+02 -0.91405067584E+02  0.35772469669E+03  0.45695590900E+03  0.26305018811E+03 0.  0.
         25    1    4    4    0    0  0.41074959354E+02 -0.31839687804E+02  0.11824264782E+03  0.17980475486E+03  0.12509000000E+03 0.  0.
         25    1    4    4    0    0  0.16296255616E+02 -0.59565379780E+02  0.23948204886E+03  0.27715115414E+03  0.12509000000E+03 0.  0.
         25    1    3    3    0    0 -0.57371214970E+02  0.91405067584E+02  0.28227289896E+03  0.32706549844E+03  0.12509000000E+03 0.  0.
<mgrwt>
<rscale>  2 0.45287155E+03</rscale>
<asrwt>0</asrwt>
<pdfrwt beam="1">  1       21 0.10470728E+00 0.45287155E+03</pdfrwt>
<pdfrwt beam="2">  1       21 0.10589987E-01 0.45287155E+03</pdfrwt>
<totfact> 0.49366994E+04</totfact>
</mgrwt>
</event>
<event>
 7    0  0.4709932E-002  0.4622979E+03  0.7546771E-02  0.1024117E+00
         21   -1    0    0  502  501  0.00000000000E+00  0.00000000000E+00  0.20343994622E+03  0.20343994622E+03  0.00000000000E+00 0.  1.
         21   -1    0    0  501  502 -0.00000000000E+00 -0.00000000000E+00 -0.26263197056E+03  0.26263197056E+03  0.00000000000E+00 0.  1.
      99926    2    1    2    0    0 -0.35527136788E-14  0.00000000000E+00 -0.59192024340E+02  0.46607191679E+03  0.46229788651E+03 0.  0.
      99925    2    3    3    0    0  0.26240927077E+02 -0.29678390295E+02 -0.15104990444E+03  0.30590084780E+03  0.26303965851E+03 0.  0.
         25    1    3    3    0    0 -0.26240927077E+02  0.29678390295E+02  0.91857880101E+02  0.16017106899E+03  0.12509000000E+03 0.  0.
         25    1    4    4    0    0  0.42568588627E+02 -0.43414790293E+02 -0.76887189568E+02  0.15892160575E+03  0.12509000000E+03 0.  0.
         25    1    4    4    0    0 -0.16327661550E+02  0.13736399998E+02 -0.74162714874E+02  0.14697924205E+03  0.12509000000E+03 0.  0.
<mgrwt>
<rscale>  2 0.46229789E+03</rscale>
<asrwt>0</asrwt>
<pdfrwt beam="1">  1       21 0.29917640E-01 0.46229789E+03</pdfrwt>
<pdfrwt beam="2">  1       21 0.38622348E-01 0.46229789E+03</pdfrwt>
<totfact> 0.63937335E+04</totfact>
</mgrwt>
</event>
<event>
 7    0  0.4709932E-002  0.4495055E+03  0.7546771E-02  0.1027870E+00
         21   -1    0    0  502  501  0.00000000000E+00  0.00000000000E+00  0.22720928489E+03  0.22720928489E+03  0.00000000000E+00 0.  1.
         21   -1    0    0  501  502 -0.00000000000E+00 -0.00000000000E+00 -0.22232273238E+03  0.22232273238E+03  0.00000000000E+00 0.  1.
      99926    2    1    2    0    0  0.14210854715E-13  0.00000000000E+00  0.48865525047E+01  0.44953201727E+03  0.44950545731E+03 0.  0.
      99925    2    3    3    0    0 -0.10085624964E+03  0.37773353286E+02 -0.15464783240E+01  0.28434212261E+03  0.26315250671E+03 0.  0.
         25    1    3    3    0    0  0.10085624964E+03 -0.37773353286E+02  0.64330308286E+01  0.16518989465E+03  0.12509000000E+03 0.  0.
         25    1    4    4    0    0 -0.58728753077E+02 -0.19287582043E+02 -0.12726470706E+02  0.14010905901E+03  0.12509000000E+03 0.  0.
         25    1    4    4    0    0 -0.42127496566E+02  0.57060935329E+02  0.11179992382E+02  0.14423306361E+03  0.12509000000E+03 0.  0.
<mgrwt>
<rscale>  2 0.44950546E+03</rscale>
<asrwt>0</asrwt>
<pdfrwt beam="1">  1       21 0.33413130E-01 0.44950546E+03</pdfrwt>
<pdfrwt beam="2">  1       21 0.32694520E-01 0.44950546E+03</pdfrwt>
<totfact> 0.72055783E+04</totfact>
</mgrwt>
</event>
<event>
 7    0  0.4709932E-002  0.4550969E+03  0.7546771E-02  0.1026213E+00
         21   -1    0    0  502  501  0.00000000000E+00  0.00000000000E+00  0.18385063623E+03  0.18385063623E+03  0.00000000000E+00 0. -1.
         21   -1    0    0  501  502 -0.00000000000E+00 -0.00000000000E+00 -0.28163246209E+03  0.28163246209E+03  0.00000000000E+00 0. -1.
      99926    2    1    2    0    0 -0.88817841970E-15  0.00000000000E+00 -0.97781825858E+02  0.46548309832E+03  0.45509694501E+03 0.  0.
      99925    2    3    3    0    0  0.57400676692E+01  0.10281994021E+03 -0.10968646196E+03  0.30302043510E+03  0.26303113060E+03 0.  0.
         25    1    4    4    0    0 -0.33467130778E+02  0.67964956117E+02 -0.47162354030E+02  0.15365897253E+03  0.12509000000E+03 0.  0.
         25    1    3    3    0    0 -0.57400676692E+01 -0.10281994021E+03  0.11904636106E+02  0.16246266323E+03  0.12509000000E+03 0.  0.
         25    1    4    4    0    0  0.39207198447E+02  0.34854984095E+02 -0.62524107933E+02  0.14936146256E+03  0.12509000000E+03 0.  0.
<mgrwt>
<rscale>  2 0.45509695E+03</rscale>
<asrwt>0</asrwt>
<pdfrwt beam="1">  1       21 0.27036859E-01 0.45509695E+03</pdfrwt>
<pdfrwt beam="2">  1       21 0.41416538E-01 0.45509695E+03</pdfrwt>
<totfact> 0.67721641E+04</totfact>
</mgrwt>
</event>
<event>
 7    0  0.4709932E-002  0.4492635E+03  0.7546771E-02  0.1027942E+00
         21   -1    0    0  502  501  0.00000000000E+00  0.00000000000E+00  0.20465649421E+03  0.20465649421E+03  0.00000000000E+00 0. -1.
         21   -1    0    0  501  502 -0.00000000000E+00 -0.00000000000E+00 -0.24655663842E+03  0.24655663842E+03  0.00000000000E+00 0. -1.
      99926    2    1    2    0    0  0.35527136788E-14  0.00000000000E+00 -0.41900144213E+02  0.45121313263E+03  0.44926347389E+03 0.  0.
      99925    2    3    3    0    0 -0.26290519131E+02  0.10462918147E+03 -0.26292163969E+02  0.28529274763E+03  0.26279691200E+03 0.  0.
         25    1    4    4    0    0  0.13547243256E+02  0.82665889123E+02 -0.21743537230E+02  0.15211004745E+03  0.12509000000E+03 0.  0.
         25    1    3    3    0    0  0.26290519131E+02 -0.10462918147E+03 -0.15607980243E+02  0.16592038500E+03  0.12509000000E+03 0.  0.
         25    1    4    4    0    0 -0.39837762387E+02  0.21963292344E+02 -0.45486267398E+01  0.13318270018E+03  0.12509000000E+03 0.  0.
<mgrwt>
<rscale>  2 0.44926347E+03</rscale>
<asrwt>0</asrwt>
<pdfrwt beam="1">  1       21 0.30096543E-01 0.44926347E+03</pdfrwt>
<pdfrwt beam="2">  1       21 0.36258329E-01 0.44926347E+03</pdfrwt>
<totfact> 0.72066515E+04</totfact>
</mgrwt>
</event>
<event>
 7    0  0.4709932E-002  0.4367466E+03  0.7546771E-02  0.1031750E+00
         21   -1    0    0  502  501  0.00000000000E+00  0.00000000000E+00  0.92381297550E+02  0.92381297550E+02  0.00000000000E+00 0. -1.
         21   -1    0    0  501  502 -0.00000000000E+00 -0.00000000000E+00 -0.51619653892E+03  0.51619653892E+03  0.00000000000E+00 0. -1.
      99926    2    1    2    0    0  0.00000000000E+00 -0.35527136788E-14 -0.42381524137E+03  0.60857783647E+03  0.43674663619E+03 0.  0.
      99925    2    3    3    0    0 -0.85238836558E+02 -0.12531677777E+02 -0.21538109919E+03  0.35067281145E+03  0.26298231993E+03 0.  0.
         25    1    4    4    0    0 -0.28620992929E+02  0.30766561271E+02 -0.11637574328E+03  0.17594477614E+03  0.12509000000E+03 0.  0.
         25    1    3    3    0    0  0.85238836558E+02  0.12531677777E+02 -0.20843414218E+03  0.25790502502E+03  0.12509000000E+03 0.  0.
         25    1    4    4    0    0 -0.56617843629E+02 -0.43298239048E+02 -0.99005355914E+02  0.17472803530E+03  0.12509000000E+03 0.  0.
<mgrwt>
<rscale>  2 0.43674664E+03</rscale>
<asrwt>0</asrwt>
<pdfrwt beam="1">  1       21 0.13585485E-01 0.43674664E+03</pdfrwt>
<pdfrwt beam="2">  1       21 0.75911253E-01 0.43674664E+03</pdfrwt>
<totfact> 0.67350912E+04</totfact>
</mgrwt>
</event>
<event>
 7    0  0.4709932E-002  0.4519077E+03  0.7546771E-02  0.1027155E+00
         21   -1    0    0  502  501  0.00000000000E+00  0.00000000000E+00  0.29108124427E+02  0.29108124427E+02  0.00000000000E+00 0. -1.
         21   -1    0    0  501  502 -0.00000000000E+00 -0.00000000000E+00 -0.17539828225E+04  0.17539828225E+04  0.00000000000E+00 0. -1.
      99926    2    1    2    0    0  0.00000000000E+00  0.71054273576E-14 -0.17248746981E+04  0.17830909470E+04  0.45190773501E+03 0.  0.
      99925    2    3    3    0    0  0.50646589957E+02 -0.42288417864E+02 -0.73937398032E+03  0.78749436188E+03  0.26290701753E+03 0.  0.
         25    1    3    3    0    0 -0.50646589957E+02  0.42288417864E+02 -0.98550071778E+03  0.99559658507E+03  0.12509000000E+03 0.  0.
         25    1    4    4    0    0  0.63237992758E+02 -0.24434959887E+02 -0.43559555037E+03  0.45824349706E+03  0.12509000000E+03 0.  0.
         25    1    4    4    0    0 -0.12591402801E+02 -0.17853457978E+02 -0.30377842995E+03  0.32925086482E+03  0.12509000000E+03 0.  0.
<mgrwt>
<rscale>  2 0.45190774E+03</rscale>
<asrwt>0</asrwt>
<pdfrwt beam="1">  1       21 0.42806059E-02 0.45190774E+03</pdfrwt>
<pdfrwt beam="2">  1       21 0.25793869E+00 0.45190774E+03</pdfrwt>
<totfact> 0.18015237E+04</totfact>
</mgrwt>
</event>
<event>
 6    0  0.4709932E-002  0.4664025E+03  0.7546771E-02  0.1022941E+00
         21   -1    0    0  502  501  0.00000000000E+00  0.00000000000E+00  0.53692833180E+02  0.53692833180E+02  0.00000000000E+00 0. -1.
         21   -1    0    0  501  502 -0.00000000000E+00 -0.00000000000E+00 -0.10128506143E+04  0.10128506143E+04  0.00000000000E+00 0. -1.
      99926    2    1    2    0    0  0.00000000000E+00 -0.14210854715E-13 -0.95915778111E+03  0.10665434475E+04  0.46640248314E+03 0.  0.
         25    1    3    3    0    0  0.34613561040E+02 -0.11942889267E+03 -0.41025009626E+03  0.44655795659E+03  0.12509000000E+03 0.  0.
         25    1    3    3    0    0 -0.56667056879E+01  0.37883540280E+02 -0.19547550115E+03  0.23521363444E+03  0.12509000000E+03 0.  0.
         25    1    3    3    0    0 -0.28946855352E+02  0.81545352392E+02 -0.35343218370E+03  0.38477185644E+03  0.12509000000E+03 0.  0.
<mgrwt>
<rscale>  2 0.46640248E+03</rscale>
<asrwt>0</asrwt>
<pdfrwt beam="1">  1       21 0.78960048E-02 0.46640248E+03</pdfrwt>
<pdfrwt beam="2">  1       21 0.14894862E+00 0.46640248E+03</pdfrwt>
<totfact> 0.33586434E+04</totfact>
</mgrwt>
</event>
<event>
 7    0  0.4709932E-002  0.4547454E+03  0.7546771E-02  0.1026316E+00
         21   -1    0    0  502  501  0.00000000000E+00  0.00000000000E+00  0.50350244841E+03  0.50350244841E+03  0.00000000000E+00 0. -1.
         21   -1    0    0  501  502 -0.00000000000E+00 -0.00000000000E+00 -0.10267742480E+03  0.10267742480E+03  0.00000000000E+00 0. -1.
      99926    2    1    2    0    0 -0.14210854715E-13  0.35527136788E-14  0.40082502361E+03  0.60617987320E+03  0.45474535635E+03 0.  0.
      99925    2    3    3    0    0 -0.63611644439E+02  0.31172280481E+02  0.13516365652E+03  0.30411759082E+03  0.26305919984E+03 0.  0.
         25    1    4    4    0    0 -0.65308701686E+02 -0.54446223695E+01  0.58187691234E+02  0.15273567344E+03  0.12509000000E+03 0.  0.
         25    1    4    4    0    0  0.16970572470E+01  0.36616902851E+02  0.76975965286E+02  0.15138191738E+03  0.12509000000E+03 0.  0.
         25    1    3    3    0    0  0.63611644439E+02 -0.31172280481E+02  0.26566136709E+03  0.30206228239E+03  0.12509000000E+03 0.  0.
<mgrwt>
<rscale>  2 0.45474536E+03</rscale>
<asrwt>0</asrwt>
<pdfrwt beam="1">  1       21 0.74044477E-01 0.45474536E+03</pdfrwt>
<pdfrwt beam="2">  1       21 0.15099621E-01 0.45474536E+03</pdfrwt>
<totfact> 0.58416910E+04</totfact>
</mgrwt>
</event>
<event>
 7    0  0.4709932E-002  0.4556028E+03  0.7546771E-02  0.1026064E+00
         21   -1    0    0  502  501  0.00000000000E+00  0.00000000000E+00  0.24121858313E+04  0.24121858313E+04  0.00000000000E+00 0.  1.
         21   -1    0    0  501  502 -0.00000000000E+00 -0.00000000000E+00 -0.21513049195E+02  0.21513049195E+02  0.00000000000E+00 0.  1.
      99926    2    1    2    0    0  0.00000000000E+00  0.00000000000E+00  0.23906727821E+04  0.24336988805E+04  0.45560277636E+03 0.  0.
      99925    2    3    3    0    0 -0.16557718049E+02 -0.55507828080E+02  0.97950411309E+03  0.10158132019E+04  0.26285523892E+03 0.  0.
         25    1    4    4    0    0  0.21591380383E+02 -0.50781518092E+02  0.55525604169E+03  0.57184065108E+03  0.12509000000E+03 0.  0.
         25    1    4    4    0    0 -0.38149098431E+02 -0.47263099880E+01  0.42424807140E+03  0.44397255084E+03  0.12509000000E+03 0.  0.
         25    1    3    3    0    0  0.16557718049E+02  0.55507828080E+02  0.14111686690E+04  0.14178856786E+04  0.12509000000E+03 0.  0.
<mgrwt>
<rscale>  2 0.45560278E+03</rscale>
<asrwt>0</asrwt>
<pdfrwt beam="1">  1       21 0.35473303E+00 0.45560278E+03</pdfrwt>
<pdfrwt beam="2">  1       21 0.31636854E-02 0.45560278E+03</pdfrwt>
<totfact> 0.77975908E+03</totfact>
</mgrwt>
</event>
<event>
 7    0  0.4709932E-002  0.4521594E+03  0.7546771E-02  0.1027080E+00
         21   -1    0    0  502  501  0.00000000000E+00  0.00000000000E+00  0.47449748673E+03  0.47449748673E+03  0.00000000000E+00 0. -1.
         21   -1    0    0  501  502 -0.00000000000E+00 -0.00000000000E+00 -0.10771825311E+03  0.10771825311E+03  0.00000000000E+00 0. -1.
      99926    2    1    2    0    0  0.00000000000E+00  0.00000000000E+00  0.36677923362E+03  0.58221573985E+03  0.45215944257E+03 0.  0.
      99925    2    3    3    0    0  0.79244444436E+02  0.55606775604E+02  0.30045289960E+03  0.41069755961E+03  0.26273322044E+03 0.  0.
         25    1    4    4    0    0  0.19353623063E+02  0.18407959589E+02  0.91932362442E+02  0.15751978627E+03  0.12509000000E+03 0.  0.
         25    1    3    3    0    0 -0.79244444436E+02 -0.55606775604E+02  0.66326334026E+02  0.17151818024E+03  0.12509000000E+03 0.  0.
         25    1    4    4    0    0  0.59890821372E+02  0.37198816015E+02  0.20852053716E+03  0.25317777334E+03  0.12509000000E+03 0.  0.
<mgrwt>
<rscale>  2 0.45215944E+03</rscale>
<asrwt>0</asrwt>
<pdfrwt beam="1">  1       21 0.69779041E-01 0.45215944E+03</pdfrwt>
<pdfrwt beam="2">  1       21 0.15840920E-01 0.45215944E+03</pdfrwt>
<totfact> 0.61148065E+04</totfact>
</mgrwt>
</event>
<event>
 7    0  0.4709932E-002  0.4575975E+03  0.7546771E-02  0.1025480E+00
         21   -1    0    0  502  501  0.00000000000E+00  0.00000000000E+00  0.18386873822E+03  0.18386873822E+03  0.00000000000E+00 0.  1.
         21   -1    0    0  501  502 -0.00000000000E+00 -0.00000000000E+00 -0.28470778245E+03  0.28470778245E+03  0.00000000000E+00 0.  1.
      99926    2    1    2    0    0 -0.71054273576E-14  0.17763568394E-14 -0.10083904423E+03  0.46857652067E+03  0.45759746818E+03 0.  0.
      99925    2    3    3    0    0 -0.61508944450E+02  0.99217676218E+01 -0.16306998988E+03  0.31559942952E+03  0.26292467855E+03 0.  0.
         25    1    4    4    0    0 -0.42809318907E+02  0.14394240914E+02 -0.39540624100E+02  0.13874725587E+03  0.12509000000E+03 0.  0.
         25    1    4    4    0    0 -0.18699625542E+02 -0.44724732919E+01 -0.12352936578E+03  0.17685217365E+03  0.12509000000E+03 0.  0.
         25    1    3    3    0    0  0.61508944450E+02 -0.99217676218E+01  0.62230945659E+02  0.15297709115E+03  0.12509000000E+03 0.  0.
<mgrwt>
<rscale>  2 0.45759747E+03</rscale>
<asrwt>0</asrwt>
<pdfrwt beam="1">  1       21 0.27039521E-01 0.45759747E+03</pdfrwt>
<pdfrwt beam="2">  1       21 0.41868791E-01 0.45759747E+03</pdfrwt>
<totfact> 0.66168293E+04</totfact>
</mgrwt>
</event>
<event>
 7    0  0.4709932E-002  0.4698405E+03  0.7546771E-02  0.1021965E+00
         21   -1    0    0  502  501  0.00000000000E+00  0.00000000000E+00  0.39952694988E+03  0.39952694988E+03  0.00000000000E+00 0.  1.
         21   -1    0    0  501  502 -0.00000000000E+00 -0.00000000000E+00 -0.13813217897E+03  0.13813217897E+03  0.00000000000E+00 0.  1.
      99926    2    1    2    0    0  0.00000000000E+00  0.00000000000E+00  0.26139477091E+03  0.53765912885E+03  0.46984051824E+03 0.  0.
      99925    2    3    3    0    0 -0.12224184548E+03  0.12134703242E+02  0.19669126759E+03  0.35077849516E+03  0.26318772409E+03 0.  0.
         25    1    3    3    0    0  0.12224184548E+03 -0.12134703242E+02  0.64703503323E+02  0.18688063370E+03  0.12509000000E+03 0.  0.
         25    1    4    4    0    0 -0.20605858613E+02  0.22129142001E+02  0.79776444635E+02  0.15141363728E+03  0.12509000000E+03 0.  0.
         25    1    4    4    0    0 -0.10163598686E+03 -0.99944387593E+01  0.11691482295E+03  0.19936485788E+03  0.12509000000E+03 0.  0.
<mgrwt>
<rscale>  2 0.46984052E+03</rscale>
<asrwt>0</asrwt>
<pdfrwt beam="1">  1       21 0.58753963E-01 0.46984052E+03</pdfrwt>
<pdfrwt beam="2">  1       21 0.20313556E-01 0.46984052E+03</pdfrwt>
<totfact> 0.55829046E+04</totfact>
</mgrwt>
</event>
<event>
 7    0  0.4709932E-002  0.4561117E+03  0.7546771E-02  0.1025915E+00
         21   -1    0    0  502  501  0.00000000000E+00  0.00000000000E+00  0.81437644242E+02  0.81437644242E+02  0.00000000000E+00 0. -1.
         21   -1    0    0  501  502 -0.00000000000E+00 -0.00000000000E+00 -0.63864175238E+03  0.63864175238E+03  0.00000000000E+00 0. -1.
      99926    2    1    2    0    0  0.00000000000E+00  0.00000000000E+00 -0.55720410814E+03  0.72007939663E+03  0.45611173994E+03 0.  0.
      99925    2    3    3    0    0  0.55984222568E+02  0.66088532515E+02 -0.23256378026E+03  0.36155355670E+03  0.26293180707E+03 0.  0.
         25    1    4    4    0    0  0.68808725668E+02  0.41680869784E+02 -0.12328884488E+03  0.19318277098E+03  0.12509000000E+03 0.  0.
         25    1    3    3    0    0 -0.55984222568E+02 -0.66088532515E+02 -0.32464032788E+03  0.35852583993E+03  0.12509000000E+03 0.  0.
         25    1    4    4    0    0 -0.12824503100E+02  0.24407662731E+02 -0.10927493538E+03  0.16837078572E+03  0.12509000000E+03 0.  0.
<mgrwt>
<rscale>  2 0.45611174E+03</rscale>
<asrwt>0</asrwt>
<pdfrwt beam="1">  1       21 0.11976124E-01 0.45611174E+03</pdfrwt>
<pdfrwt beam="2">  1       21 0.93917903E-01 0.45611174E+03</pdfrwt>
<totfact> 0.51375610E+04</totfact>
</mgrwt>
</event>
<event>
 7    0  0.4709932E-002  0.4380770E+03  0.7546771E-02  0.1031338E+00
         21   -1    0    0  502  501  0.00000000000E+00  0.00000000000E+00  0.26434595349E+03  0.26434595349E+03  0.00000000000E+00 0. -1.
         21   -1    0    0  501  502 -0.00000000000E+00 -0.00000000000E+00 -0.18149650393E+03  0.18149650393E+03  0.00000000000E+00 0. -1.
      99926    2    1    2    0    0  0.00000000000E+00 -0.71054273576E-14  0.82849449562E+02  0.44584245742E+03  0.43807700870E+03 0.  0.
      99925    2    3    3    0    0  0.53551680511E+02 -0.45171945883E+02  0.12052781696E+03  0.29760125313E+03  0.26292824881E+03 0.  0.
         25    1    3    3    0    0 -0.53551680511E+02  0.45171945883E+02 -0.37678367403E+02  0.14824120429E+03  0.12509000000E+03 0.  0.
         25    1    4    4    0    0  0.32653121021E+02 -0.62650030775E+02  0.55494193738E+02  0.15400768262E+03  0.12509000000E+03 0.  0.
         25    1    4    4    0    0  0.20898559490E+02  0.17478084892E+02  0.65033623227E+02  0.14359357050E+03  0.12509000000E+03 0.  0.
<mgrwt>
<rscale>  2 0.43807701E+03</rscale>
<asrwt>0</asrwt>
<pdfrwt beam="1">  1       21 0.38874405E-01 0.43807701E+03</pdfrwt>
<pdfrwt beam="2">  1       21 0.26690662E-01 0.43807701E+03</pdfrwt>
<totfact> 0.79409335E+04</totfact>
</mgrwt>
</event>
<event>
 7    0  0.4709932E-002  0.4550679E+03  0.7546771E-02  0.1026221E+00
         21   -1    0    0  502  501  0.00000000000E+00  0.00000000000E+00  0.40966755145E+03  0.40966755145E+03  0.00000000000E+00 0. -1.
         21   -1    0    0  501  502 -0.00000000000E+00 -0.00000000000E+00 -0.12637492233E+03  0.12637492233E+03  0.00000000000E+00 0. -1.
      99926    2    1    2    0    0  0.00000000000E+00 -0.71054273576E-14  0.28329262913E+03  0.53604247378E+03  0.45506792897E+03 0.  0.
      99925    2    3    3    0    0  0.42571509097E+02  0.45220709679E+02  0.66681640278E+02  0.27831184975E+03  0.26297109840E+03 0.  0.
         25    1    3    3    0    0 -0.42571509097E+02 -0.45220709679E+02  0.21661098885E+03  0.25773062403E+03  0.12509000000E+03 0.  0.
         25    1    4    4    0    0  0.43333096968E+01  0.30597274912E+02  0.70027793405E+02  0.14665050547E+03  0.12509000000E+03 0.  0.
         25    1    4    4    0    0  0.38238199400E+02  0.14623434768E+02 -0.33461531270E+01  0.13166134428E+03  0.12509000000E+03 0.  0.
<mgrwt>
<rscale>  2 0.45506793E+03</rscale>
<asrwt>0</asrwt>
<pdfrwt beam="1">  1       21 0.60245228E-01 0.45506793E+03</pdfrwt>
<pdfrwt beam="2">  1       21 0.18584548E-01 0.45506793E+03</pdfrwt>
<totfact> 0.62764614E+04</totfact>
</mgrwt>
</event>
<event>
 7    0  0.4709932E-002  0.4512623E+03  0.7546771E-02  0.1027346E+00
         21   -1    0    0  502  501  0.00000000000E+00  0.00000000000E+00  0.29314235437E+03  0.29314235437E+03  0.00000000000E+00 0. -1.
         21   -1    0    0  501  502 -0.00000000000E+00 -0.00000000000E+00 -0.17366788347E+03  0.17366788347E+03  0.00000000000E+00 0. -1.
      99926    2    1    2    0    0  0.22204460493E-15 -0.71054273576E-14  0.11947447090E+03  0.46681023784E+03  0.45126228400E+03 0.  0.
      99925    2    3    3    0    0  0.16500608235E+01 -0.61669341450E+02 -0.18284892024E+02  0.27077202588E+03  0.26301582148E+03 0.  0.
         25    1    3    3    0    0 -0.16500608235E+01  0.61669341450E+02  0.13775936292E+03  0.19603821196E+03  0.12509000000E+03 0.  0.
         25    1    4    4    0    0 -0.14269351564E+02  0.74672887790E+01 -0.14035030578E+02  0.12690100464E+03  0.12509000000E+03 0.  0.
         25    1    4    4    0    0  0.15919412388E+02 -0.69136630228E+02 -0.42498614455E+01  0.14387102124E+03  0.12509000000E+03 0.  0.
<mgrwt>
<rscale>  2 0.45126228E+03</rscale>
<asrwt>0</asrwt>
<pdfrwt beam="1">  1       21 0.43109170E-01 0.45126228E+03</pdfrwt>
<pdfrwt beam="2">  1       21 0.25539395E-01 0.45126228E+03</pdfrwt>
<totfact> 0.69718083E+04</totfact>
</mgrwt>
</event>
<event>
 7    0  0.4709932E-002  0.4534246E+03  0.7546771E-02  0.1026706E+00
         21   -1    0    0  502  501  0.00000000000E+00  0.00000000000E+00  0.37885766826E+03  0.37885766826E+03  0.00000000000E+00 0. -1.
         21   -1    0    0  501  502 -0.00000000000E+00 -0.00000000000E+00 -0.13566695980E+03  0.13566695980E+03  0.00000000000E+00 0. -1.
      99926    2    1    2    0    0 -0.71054273576E-14  0.00000000000E+00  0.24319070845E+03  0.51452462806E+03  0.45342460476E+03 0.  0.
      99925    2    3    3    0    0  0.61769785540E+02 -0.79634176433E+02  0.98634746189E+02  0.29842038750E+03  0.26299963129E+03 0.  0.
         25    1    3    3    0    0 -0.61769785540E+02  0.79634176433E+02  0.14455596226E+03  0.21610424056E+03  0.12509000000E+03 0.  0.
         25    1    4    4    0    0  0.27972324348E+02 -0.29159142273E+02  0.65132593321E+01  0.13161548980E+03  0.12509000000E+03 0.  0.
         25    1    4    4    0    0  0.33797461192E+02 -0.50475034160E+02  0.92121486857E+02  0.16680489770E+03  0.12509000000E+03 0.  0.
<mgrwt>
<rscale>  2 0.45342460E+03</rscale>
<asrwt>0</asrwt>
<pdfrwt beam="1">  1       21 0.55714362E-01 0.45342460E+03</pdfrwt>
<pdfrwt beam="2">  1       21 0.19951024E-01 0.45342460E+03</pdfrwt>
<totfact> 0.65071488E+04</totfact>
</mgrwt>
</event>
<event>
 7    0  0.4709932E-002  0.4541197E+03  0.7546771E-02  0.1026501E+00
         21   -1    0    0  502  501  0.00000000000E+00  0.00000000000E+00  0.31574185250E+02  0.31574185250E+02  0.00000000000E+00 0. -1.
         21   -1    0    0  501  502 -0.00000000000E+00 -0.00000000000E+00 -0.16328582006E+04  0.16328582006E+04  0.00000000000E+00 0. -1.
      99926    2    1    2    0    0  0.00000000000E+00  0.71054273576E-14 -0.16012840154E+04  0.16644323859E+04  0.45411966403E+03 0.  0.
      99925    2    3    3    0    0  0.10236734405E+03  0.43929876394E+02 -0.10607518057E+04  0.10985423922E+04  0.26304388788E+03 0.  0.
         25    1    3    3    0    0 -0.10236734405E+03 -0.43929876394E+02 -0.54053220970E+03  0.56588999372E+03  0.12509000000E+03 0.  0.
         25    1    4    4    0    0  0.71753524438E+02  0.88607378336E+01 -0.42362920311E+03  0.44758942209E+03  0.12509000000E+03 0.  0.
         25    1    4    4    0    0  0.30613819616E+02  0.35069138560E+02 -0.63712260259E+03  0.65095297008E+03  0.12509000000E+03 0.  0.
<mgrwt>
<rscale>  2 0.45411966E+03</rscale>
<asrwt>0</asrwt>
<pdfrwt beam="1">  1       21 0.46432623E-02 0.45411966E+03</pdfrwt>
<pdfrwt beam="2">  1       21 0.24012622E+00 0.45411966E+03</pdfrwt>
<totfact> 0.20149559E+04</totfact>
</mgrwt>
</event>
<event>
 7    0  0.4709932E-002  0.4597383E+03  0.7546771E-02  0.1024857E+00
         21   -1    0    0  502  501  0.00000000000E+00  0.00000000000E+00  0.80684821650E+03  0.80684821650E+03  0.00000000000E+00 0. -1.
         21   -1    0    0  501  502 -0.00000000000E+00 -0.00000000000E+00 -0.65489166217E+02  0.65489166217E+02  0.00000000000E+00 0. -1.
      99926    2    1    2    0    0  0.00000000000E+00  0.00000000000E+00  0.74135905028E+03  0.87233738271E+03  0.45973826015E+03 0.  0.
      99925    2    3    3    0    0 -0.31774693322E+02 -0.15216791909E+02  0.25156985417E+03  0.36560062006E+03  0.26293580961E+03 0.  0.
         25    1    4    4    0    0 -0.21920191898E+02  0.20398129982E+02  0.16432208402E+03  0.20867638562E+03  0.12509000000E+03 0.  0.
         25    1    4    4    0    0 -0.98545014240E+01 -0.35614921890E+02  0.87247770150E+02  0.15692423444E+03  0.12509000000E+03 0.  0.
         25    1    3    3    0    0  0.31774693322E+02  0.15216791909E+02  0.48978919612E+03  0.50673676265E+03  0.12509000000E+03 0.  0.
<mgrwt>
<rscale>  2 0.45973826E+03</rscale>
<asrwt>0</asrwt>
<pdfrwt beam="1">  1       21 0.11865414E+00 0.45973826E+03</pdfrwt>
<pdfrwt beam="2">  1       21 0.96307602E-02 0.45973826E+03</pdfrwt>
<totfact> 0.42839129E+04</totfact>
</mgrwt>
</event>
<event>
 7    0  0.4709932E-002  0.4358324E+03  0.7546771E-02  0.1032033E+00
         21   -1    0    0  502  501  0.00000000000E+00  0.00000000000E+00  0.24788780220E+02  0.24788780220E+02  0.00000000000E+00 0. -1.
         21   -1    0    0  501  502 -0.00000000000E+00 -0.00000000000E+00 -0.19156842288E+04  0.19156842288E+04  0.00000000000E+00 0. -1.
      99926    2    1    2    0    0  0.00000000000E+00  0.00000000000E+00 -0.18908954485E+04  0.19404730090E+04  0.43583242338E+03 0.  0.
      99925    2    3    3    0    0 -0.76431369571E+02  0.39633745853E+02 -0.10418598019E+04  0.10779640957E+04  0.26291092942E+03 0.  0.
         25    1    4    4    0    0 -0.66749085724E+02  0.43665339441E+02 -0.48774690153E+03  0.50981040629E+03  0.12509000000E+03 0.  0.
         25    1    3    3    0    0  0.76431369571E+02 -0.39633745853E+02 -0.84903564668E+03  0.86250891329E+03  0.12509000000E+03 0.  0.
         25    1    4    4    0    0 -0.96822838471E+01 -0.40315935874E+01 -0.55411290033E+03  0.56815368940E+03  0.12509000000E+03 0.  0.
<mgrwt>
<rscale>  2 0.43583242E+03</rscale>
<asrwt>0</asrwt>
<pdfrwt beam="1">  1       21 0.36454079E-02 0.43583242E+03</pdfrwt>
<pdfrwt beam="2">  1       21 0.28171834E+00 0.43583242E+03</pdfrwt>
<totfact> 0.17114307E+04</totfact>
</mgrwt>
</event>
<event>
 7    0  0.4709932E-002  0.4527700E+03  0.7546771E-02  0.1026899E+00
         21   -1    0    0  502  501  0.00000000000E+00  0.00000000000E+00  0.30499622920E+02  0.30499622920E+02  0.00000000000E+00 0. -1.
         21   -1    0    0  501  502 -0.00000000000E+00 -0.00000000000E+00 -0.16803538441E+04  0.16803538441E+04  0.00000000000E+00 0. -1.
      99926    2    1    2    0    0  0.00000000000E+00  0.00000000000E+00 -0.16498542212E+04  0.17108534670E+04  0.45276995756E+03 0.  0.
      99925    2    3    3    0    0 -0.34369208110E+02  0.44222506651E+02 -0.67960262947E+03  0.73096952906E+03  0.26328662303E+03 0.  0.
         25    1    4    4    0    0 -0.15770717583E+02  0.47757307855E+02 -0.26245097395E+03  0.29505507590E+03  0.12509000000E+03 0.  0.
         25    1    4    4    0    0 -0.18598490527E+02 -0.35348012035E+01 -0.41715165552E+03  0.43591445316E+03  0.12509000000E+03 0.  0.
         25    1    3    3    0    0  0.34369208110E+02 -0.44222506651E+02 -0.97025159170E+03  0.97988393796E+03  0.12509000000E+03 0.  0.
<mgrwt>
<rscale>  2 0.45276996E+03</rscale>
<asrwt>0</asrwt>
<pdfrwt beam="1">  1       21 0.44852376E-02 0.45276996E+03</pdfrwt>
<pdfrwt beam="2">  1       21 0.24711092E+00 0.45276996E+03</pdfrwt>
<totfact> 0.19370093E+04</totfact>
</mgrwt>
</event>
<event>
 7    0  0.4709932E-002  0.4524996E+03  0.7546771E-02  0.1026979E+00
         21   -1    0    0  502  501  0.00000000000E+00  0.00000000000E+00  0.82257126774E+02  0.82257126774E+02  0.00000000000E+00 0. -1.
         21   -1    0    0  501  502 -0.00000000000E+00 -0.00000000000E+00 -0.62230429452E+03  0.62230429452E+03  0.00000000000E+00 0. -1.
      99926    2    1    2    0    0  0.00000000000E+00  0.44408920985E-15 -0.54004716774E+03  0.70456142129E+03  0.45249956131E+03 0.  0.
      99925    2    3    3    0    0  0.80041320265E+02  0.38069742712E+01 -0.22211763558E+03  0.35363721078E+03  0.26325259127E+03 0.  0.
         25    1    4    4    0    0  0.38774471751E+02  0.34629071305E+02 -0.14275361266E+03  0.19679617442E+03  0.12509000000E+03 0.  0.
         25    1    4    4    0    0  0.41266848514E+02 -0.30822097033E+02 -0.79364022924E+02  0.15684103636E+03  0.12509000000E+03 0.  0.
         25    1    3    3    0    0 -0.80041320265E+02 -0.38069742712E+01 -0.31792953216E+03  0.35092421051E+03  0.12509000000E+03 0.  0.
<mgrwt>
<rscale>  2 0.45249956E+03</rscale>
<asrwt>0</asrwt>
<pdfrwt beam="1">  1       21 0.12096636E-01 0.45249956E+03</pdfrwt>
<pdfrwt beam="2">  1       21 0.91515340E-01 0.45249956E+03</pdfrwt>
<totfact> 0.53704886E+04</totfact>
</mgrwt>
</event>
<event>
 7    0  0.4709932E-002  0.4452582E+03  0.7546771E-02  0.1029146E+00
         21   -1    0    0  502  501  0.00000000000E+00  0.00000000000E+00  0.79542121705E+02  0.79542121705E+02  0.00000000000E+00 0.  1.
         21   -1    0    0  501  502 -0.00000000000E+00 -0.00000000000E+00 -0.62311269618E+03  0.62311269618E+03  0.00000000000E+00 0.  1.
      99926    2    1    2    0    0 -0.71054273576E-14  0.00000000000E+00 -0.54357057448E+03  0.70265481789E+03  0.44525815396E+03 0.  0.
      99925    2    3    3    0    0 -0.49305731529E+02 -0.59313791124E+02 -0.45468559531E+03  0.53090724556E+03  0.26301013636E+03 0.  0.
         25    1    3    3    0    0  0.49305731529E+02  0.59313791124E+02 -0.88884979172E+02  0.17174757233E+03  0.12509000000E+03 0.  0.
         25    1    4    4    0    0 -0.60259555241E+02 -0.50041397406E+02 -0.22799294912E+03  0.27159463986E+03  0.12509000000E+03 0.  0.
         25    1    4    4    0    0  0.10953823711E+02 -0.92723937182E+01 -0.22669264618E+03  0.25931260570E+03  0.12509000000E+03 0.  0.
<mgrwt>
<rscale>  2 0.44525815E+03</rscale>
<asrwt>0</asrwt>
<pdfrwt beam="1">  1       21 0.11697371E-01 0.44525815E+03</pdfrwt>
<pdfrwt beam="2">  1       21 0.91634221E-01 0.44525815E+03</pdfrwt>
<totfact> 0.57004929E+04</totfact>
</mgrwt>
</event>
<event>
 7    0  0.4709932E-002  0.4601855E+03  0.7546771E-02  0.1024727E+00
         21   -1    0    0  502  501  0.00000000000E+00  0.00000000000E+00  0.70902594473E+02  0.70902594473E+02  0.00000000000E+00 0. -1.
         21   -1    0    0  501  502 -0.00000000000E+00 -0.00000000000E+00 -0.74669575282E+03  0.74669575282E+03  0.00000000000E+00 0. -1.
      99926    2    1    2    0    0  0.00000000000E+00 -0.71054273576E-14 -0.67579315835E+03  0.81759834729E+03  0.46018546764E+03 0.  0.
      99925    2    3    3    0    0  0.73769001502E+02 -0.32128630078E+02 -0.57657494965E+03  0.63880831544E+03  0.26298911927E+03 0.  0.
         25    1    4    4    0    0  0.65906574397E+02  0.91207086267E+01 -0.33047260259E+03  0.35956433783E+03  0.12509000000E+03 0.  0.
         25    1    3    3    0    0 -0.73769001502E+02  0.32128630078E+02 -0.99218208697E+02  0.17879003185E+03  0.12509000000E+03 0.  0.
         25    1    4    4    0    0  0.78624271050E+01 -0.41249338704E+02 -0.24610234706E+03  0.27924397761E+03  0.12509000000E+03 0.  0.
<mgrwt>
<rscale>  2 0.46018547E+03</rscale>
<asrwt>0</asrwt>
<pdfrwt beam="1">  1       21 0.10426852E-01 0.46018547E+03</pdfrwt>
<pdfrwt beam="2">  1       21 0.10980820E+00 0.46018547E+03</pdfrwt>
<totfact> 0.45063573E+04</totfact>
</mgrwt>
</event>
<event>
 7    0  0.4709932E-002  0.4538060E+03  0.7546771E-02  0.1026593E+00
         21   -1    0    0  502  501  0.00000000000E+00  0.00000000000E+00  0.59918532214E+02  0.59918532214E+02  0.00000000000E+00 0.  1.
         21   -1    0    0  501  502 -0.00000000000E+00 -0.00000000000E+00 -0.85924953241E+03  0.85924953241E+03  0.00000000000E+00 0.  1.
      99926    2    1    2    0    0  0.13322676296E-14 -0.35527136788E-14 -0.79933100019E+03  0.91916806462E+03  0.45380599726E+03 0.  0.
      99925    2    3    3    0    0  0.34121400849E+01 -0.25851871410E+02 -0.28262434330E+03  0.38689629256E+03  0.26293014246E+03 0.  0.
         25    1    3    3    0    0 -0.34121400849E+01  0.25851871410E+02 -0.51670665689E+03  0.53227177206E+03  0.12509000000E+03 0.  0.
         25    1    4    4    0    0 -0.11245140623E+02  0.22242060464E+02 -0.16032823656E+03  0.20487511801E+03  0.12509000000E+03 0.  0.
         25    1    4    4    0    0  0.14657280708E+02 -0.48093931875E+02 -0.12229610674E+03  0.18202117455E+03  0.12509000000E+03 0.  0.
<mgrwt>
<rscale>  2 0.45380600E+03</rscale>
<asrwt>0</asrwt>
<pdfrwt beam="1">  1       21 0.88115487E-02 0.45380600E+03</pdfrwt>
<pdfrwt beam="2">  1       21 0.12636023E+00 0.45380600E+03</pdfrwt>
<totfact> 0.42813728E+04</totfact>
</mgrwt>
</event>
<event>
 7    0  0.4709932E-002  0.4535675E+03  0.7546771E-02  0.1026663E+00
         21   -1    0    0  502  501  0.00000000000E+00  0.00000000000E+00  0.62079921728E+03  0.62079921728E+03  0.00000000000E+00 0. -1.
         21   -1    0    0  501  502 -0.00000000000E+00 -0.00000000000E+00 -0.82846227171E+02  0.82846227171E+02  0.00000000000E+00 0. -1.
      99926    2    1    2    0    0  0.00000000000E+00  0.35527136788E-14  0.53795299011E+03  0.70364544445E+03  0.45356751640E+03 0.  0.
      99925    2    3    3    0    0  0.86435076841E+02  0.31877611839E+02  0.24121357844E+03  0.36869919327E+03  0.26318795574E+03 0.  0.
         25    1    3    3    0    0 -0.86435076841E+02 -0.31877611839E+02  0.29673941167E+03  0.33494625118E+03  0.12509000000E+03 0.  0.
         25    1    4    4    0    0  0.29451800763E+02  0.40217777858E+02  0.15882298788E+03  0.20822374457E+03  0.12509000000E+03 0.  0.
         25    1    4    4    0    0  0.56983276078E+02 -0.83401660191E+01  0.82390590564E+02  0.16047544870E+03  0.12509000000E+03 0.  0.
<mgrwt>
<rscale>  2 0.45356752E+03</rscale>
<asrwt>0</asrwt>
<pdfrwt beam="1">  1       21 0.91294001E-01 0.45356752E+03</pdfrwt>
<pdfrwt beam="2">  1       21 0.12183269E-01 0.45356752E+03</pdfrwt>
<totfact> 0.53303790E+04</totfact>
</mgrwt>
</event>
<event>
 7    0  0.4709932E-002  0.4427607E+03  0.7546771E-02  0.1029903E+00
         21   -1    0    0  502  501  0.00000000000E+00  0.00000000000E+00  0.94683102238E+03  0.94683102238E+03  0.00000000000E+00 0. -1.
         21   -1    0    0  501  502 -0.00000000000E+00 -0.00000000000E+00 -0.51761365842E+02  0.51761365842E+02  0.00000000000E+00 0. -1.
      99926    2    1    2    0    0  0.35527136788E-14  0.14210854715E-13  0.89506965654E+03  0.99859238822E+03  0.44276073421E+03 0.  0.
      99925    2    3    3    0    0 -0.86047636867E+01 -0.94430865114E+02  0.49191067547E+03  0.56595408390E+03  0.26331859449E+03 0.  0.
         25    1    4    4    0    0  0.27768551093E+02 -0.69746929255E+02  0.22940211764E+03  0.27186129965E+03  0.12509000000E+03 0.  0.
         25    1    3    3    0    0  0.86047636867E+01  0.94430865114E+02  0.40315898107E+03  0.43263830432E+03  0.12509000000E+03 0.  0.
         25    1    4    4    0    0 -0.36373314779E+02 -0.24683935860E+02  0.26250855783E+03  0.29409278426E+03  0.12509000000E+03 0.  0.
<mgrwt>
<rscale>  2 0.44276073E+03</rscale>
<asrwt>0</asrwt>
<pdfrwt beam="1">  1       21 0.13923985E+00 0.44276073E+03</pdfrwt>
<pdfrwt beam="2">  1       21 0.76119661E-02 0.44276073E+03</pdfrwt>
<totfact> 0.43206116E+04</totfact>
</mgrwt>
</event>
<event>
 7    0  0.4709932E-002  0.4575904E+03  0.7546771E-02  0.1025482E+00
         21   -1    0    0  502  501  0.00000000000E+00  0.00000000000E+00  0.29300664567E+03  0.29300664567E+03  0.00000000000E+00 0. -1.
         21   -1    0    0  501  502 -0.00000000000E+00 -0.00000000000E+00 -0.17865547600E+03  0.17865547600E+03  0.00000000000E+00 0. -1.
      99926    2    1    2    0    0  0.14210854715E-13  0.00000000000E+00  0.11435116966E+03  0.47166212167E+03  0.45759039218E+03 0.  0.
      99925    2    3    3    0    0  0.82567343313E+02  0.48331005248E+02  0.13860269690E+03  0.31232318442E+03  0.26302435569E+03 0.  0.
         25    1    3    3    0    0 -0.82567343313E+02 -0.48331005248E+02 -0.24251527240E+02  0.15933893725E+03  0.12509000000E+03 0.  0.
         25    1    4    4    0    0  0.76642757778E+01  0.46644236324E+02  0.74109364294E+02  0.15288600944E+03  0.12509000000E+03 0.  0.
         25    1    4    4    0    0  0.74903067535E+02  0.16867689244E+01  0.64493332609E+02  0.15943717498E+03  0.12509000000E+03 0.  0.
<mgrwt>
<rscale>  2 0.45759039E+03</rscale>
<asrwt>0</asrwt>
<pdfrwt beam="1">  1       21 0.43089212E-01 0.45759039E+03</pdfrwt>
<pdfrwt beam="2">  1       21 0.26272864E-01 0.45759039E+03</pdfrwt>
<totfact> 0.65946688E+04</totfact>
</mgrwt>
</event>
<event>
 7    0  0.4709932E-002  0.4524912E+03  0.7546771E-02  0.1026982E+00
         21   -1    0    0  502  501  0.00000000000E+00  0.00000000000E+00  0.15585237137E+03  0.15585237137E+03  0.00000000000E+00 0. -1.
         21   -1    0    0  501  502 -0.00000000000E+00 -0.00000000000E+00 -0.32843311103E+03  0.32843311103E+03  0.00000000000E+00 0. -1.
      99926    2    1    2    0    0  0.00000000000E+00  0.00000000000E+00 -0.17258073966E+03  0.48428548240E+03  0.45249123390E+03 0.  0.
      99925    2    3    3    0    0  0.37061094966E+02 -0.77219778251E+01  0.38498011688E+01  0.26472137436E+03  0.26197219580E+03 0.  0.
         25    1    4    4    0    0  0.26989916805E+02  0.16653215006E+02 -0.29972922877E+02  0.13248271353E+03  0.12509000000E+03 0.  0.
         25    1    3    3    0    0 -0.37061094966E+02  0.77219778251E+01 -0.17643054083E+03  0.21956410804E+03  0.12509000000E+03 0.  0.
         25    1    4    4    0    0  0.10071178161E+02 -0.24375192831E+02  0.33822724046E+02  0.13223866083E+03  0.12509000000E+03 0.  0.
<mgrwt>
<rscale>  2 0.45249123E+03</rscale>
<asrwt>0</asrwt>
<pdfrwt beam="1">  1       21 0.22919467E-01 0.45249123E+03</pdfrwt>
<pdfrwt beam="2">  1       21 0.48298986E-01 0.45249123E+03</pdfrwt>
<totfact> 0.67728289E+04</totfact>
</mgrwt>
</event>
<event>
 7    0  0.4709932E-002  0.4539600E+03  0.7546771E-02  0.1026548E+00
         21   -1    0    0  502  501  0.00000000000E+00  0.00000000000E+00  0.58128877279E+03  0.58128877279E+03  0.00000000000E+00 0.  1.
         21   -1    0    0  501  502 -0.00000000000E+00 -0.00000000000E+00 -0.88630517629E+02  0.88630517629E+02  0.00000000000E+00 0.  1.
      99926    2    1    2    0    0  0.14210854715E-13  0.00000000000E+00  0.49265825516E+03  0.66991929042E+03  0.45396001949E+03 0.  0.
      99925    2    3    3    0    0  0.80297493378E+02  0.60747908094E+02  0.38417740110E+03  0.47613177901E+03  0.26262368455E+03 0.  0.
         25    1    3    3    0    0 -0.80297493378E+02 -0.60747908094E+02  0.10848085406E+03  0.19378751141E+03  0.12509000000E+03 0.  0.
         25    1    4    4    0    0  0.80636473959E+02  0.38227307710E+02  0.19602486252E+03  0.24907192297E+03  0.12509000000E+03 0.  0.
         25    1    4    4    0    0 -0.33898058067E+00  0.22520600384E+02  0.18815253858E+03  0.22705985604E+03  0.12509000000E+03 0.  0.
<mgrwt>
<rscale>  2 0.45396002E+03</rscale>
<asrwt>0</asrwt>
<pdfrwt beam="1">  1       21 0.85483641E-01 0.45396002E+03</pdfrwt>
<pdfrwt beam="2">  1       21 0.13033900E-01 0.45396002E+03</pdfrwt>
<totfact> 0.55016487E+04</totfact>
</mgrwt>
</event>
<event>
 7    0  0.4709932E-002  0.4562895E+03  0.7546771E-02  0.1025863E+00
         21   -1    0    0  502  501  0.00000000000E+00  0.00000000000E+00  0.11554347131E+03  0.11554347131E+03  0.00000000000E+00 0.  1.
         21   -1    0    0  501  502 -0.00000000000E+00 -0.00000000000E+00 -0.45048012579E+03  0.45048012579E+03  0.00000000000E+00 0.  1.
      99926    2    1    2    0    0 -0.71054273576E-14  0.00000000000E+00 -0.33493665448E+03  0.56602359710E+03  0.45628954618E+03 0.  0.
      99925    2    3    3    0    0  0.59511020113E+02  0.77534978517E+02 -0.13688628033E+03  0.31220339851E+03  0.26302067198E+03 0.  0.
         25    1    3    3    0    0 -0.59511020113E+02 -0.77534978517E+02 -0.19805037415E+03  0.25382019859E+03  0.12509000000E+03 0.  0.
         25    1    4    4    0    0  0.27432582909E+02  0.50221307878E+02 -0.26396013344E+02  0.14006778356E+03  0.12509000000E+03 0.  0.
         25    1    4    4    0    0  0.32078437203E+02  0.27313670639E+02 -0.11049026699E+03  0.17213561495E+03  0.12509000000E+03 0.  0.
<mgrwt>
<rscale>  2 0.45628955E+03</rscale>
<asrwt>0</asrwt>
<pdfrwt beam="1">  1       21 0.16991687E-01 0.45628955E+03</pdfrwt>
<pdfrwt beam="2">  1       21 0.66247076E-01 0.45628955E+03</pdfrwt>
<totfact> 0.60203569E+04</totfact>
</mgrwt>
</event>
<event>
 6    0  0.4709932E-002  0.4588684E+03  0.7546771E-02  0.1025110E+00
         21   -1    0    0  502  501  0.00000000000E+00  0.00000000000E+00  0.34234963166E+03  0.34234963166E+03  0.00000000000E+00 0. -1.
         21   -1    0    0  501  502 -0.00000000000E+00 -0.00000000000E+00 -0.15376105962E+03  0.15376105962E+03  0.00000000000E+00 0. -1.
      99926    2    1    2    0    0  0.00000000000E+00  0.35527136788E-14  0.18858857204E+03  0.49611069128E+03  0.45886835640E+03 0.  0.
         25    1    3    3    0    0 -0.42504770213E+02  0.29005549594E+02 -0.27915861865E+01  0.13528960955E+03  0.12509000000E+03 0.  0.
         25    1    3    3    0    0 -0.53832122861E+02 -0.74977361923E+01  0.42783535781E+02  0.14294073084E+03  0.12509000000E+03 0.  0.
         25    1    3    3    0    0  0.96336893073E+02 -0.21507813401E+02  0.14859662244E+03  0.21788035089E+03  0.12509000000E+03 0.  0.
<mgrwt>
<rscale>  2 0.45886836E+03</rscale>
<asrwt>0</asrwt>
<pdfrwt beam="1">  1       21 0.50345534E-01 0.45886836E+03</pdfrwt>
<pdfrwt beam="2">  1       21 0.22611920E-01 0.45886836E+03</pdfrwt>
<totfact> 0.63570031E+04</totfact>
</mgrwt>
</event>
<event>
 7    0  0.4709932E-002  0.4537355E+03  0.7546771E-02  0.1026614E+00
         21   -1    0    0  502  501  0.00000000000E+00  0.00000000000E+00  0.12938255894E+03  0.12938255894E+03  0.00000000000E+00 0. -1.
         21   -1    0    0  501  502 -0.00000000000E+00 -0.00000000000E+00 -0.39780467812E+03  0.39780467812E+03  0.00000000000E+00 0. -1.
      99926    2    1    2    0    0  0.00000000000E+00  0.00000000000E+00 -0.26842211918E+03  0.52718723706E+03  0.45373554947E+03 0.  0.
      99925    2    3    3    0    0  0.83299079804E+02  0.71192636769E+02 -0.14174286925E+03  0.31813636122E+03  0.26289270648E+03 0.  0.
         25    1    4    4    0    0  0.14246693227E+02  0.59952566834E+02 -0.88941134707E+02  0.16539441369E+03  0.12509000000E+03 0.  0.
         25    1    4    4    0    0  0.69052386577E+02  0.11240069935E+02 -0.52801734540E+02  0.15274194753E+03  0.12509000000E+03 0.  0.
         25    1    3    3    0    0 -0.83299079804E+02 -0.71192636769E+02 -0.12667924994E+03  0.20905087584E+03  0.12509000000E+03 0.  0.
<mgrwt>
<rscale>  2 0.45373555E+03</rscale>
<asrwt>0</asrwt>
<pdfrwt beam="1">  1       21 0.19026847E-01 0.45373555E+03</pdfrwt>
<pdfrwt beam="2">  1       21 0.58500687E-01 0.45373555E+03</pdfrwt>
<totfact> 0.64036765E+04</totfact>
</mgrwt>
</event>
<event>
 7    0  0.4709932E-002  0.4495147E+03  0.7546771E-02  0.1027867E+00
         21   -1    0    0  502  501  0.00000000000E+00  0.00000000000E+00  0.15068973987E+04  0.15068973987E+04  0.00000000000E+00 0.  1.
         21   -1    0    0  501  502 -0.00000000000E+00 -0.00000000000E+00 -0.33523093017E+02  0.33523093017E+02  0.00000000000E+00 0.  1.
      99926    2    1    2    0    0  0.00000000000E+00  0.00000000000E+00  0.14733743057E+04  0.15404204917E+04  0.44951467902E+03 0.  0.
      99925    2    3    3    0    0 -0.10110327521E+03  0.32286167530E+02  0.86348970625E+03  0.90885814198E+03  0.26295319086E+03 0.  0.
         25    1    3    3    0    0  0.10110327521E+03 -0.32286167530E+02  0.60988459942E+03  0.63156234972E+03  0.12509000000E+03 0.  0.
         25    1    4    4    0    0 -0.57382433215E+02  0.45026314958E+02  0.53928735415E+03  0.55838917533E+03  0.12509000000E+03 0.  0.
         25    1    4    4    0    0 -0.43720841996E+02 -0.12740147428E+02  0.32420235210E+03  0.35046896665E+03  0.12509000000E+03 0.  0.
<mgrwt>
<rscale>  2 0.44951468E+03</rscale>
<asrwt>0</asrwt>
<pdfrwt beam="1">  1       21 0.22160251E+00 0.44951468E+03</pdfrwt>
<pdfrwt beam="2">  1       21 0.49298676E-02 0.44951468E+03</pdfrwt>
<totfact> 0.23803723E+04</totfact>
</mgrwt>
</event>
<event>
 7    0  0.4709932E-002  0.4450083E+03  0.7546771E-02  0.1029221E+00
         21   -1    0    0  502  501  0.00000000000E+00  0.00000000000E+00  0.27489989898E+03  0.27489989898E+03  0.00000000000E+00 0. -1.
         21   -1    0    0  501  502 -0.00000000000E+00 -0.00000000000E+00 -0.18009501616E+03  0.18009501616E+03  0.00000000000E+00 0. -1.
      99926    2    1    2    0    0  0.22204460493E-15  0.17763568394E-14  0.94804882817E+02  0.45499491514E+03  0.44500832239E+03 0.  0.
      99925    2    3    3    0    0  0.17514974392E+01  0.13160129686E+02  0.16517659528E+03  0.31085629169E+03  0.26300583586E+03 0.  0.
         25    1    4    4    0    0  0.20343365460E+02 -0.29019944315E+02  0.83172882162E+02  0.15434132989E+03  0.12509000000E+03 0.  0.
         25    1    4    4    0    0 -0.18591868021E+02  0.42180074001E+02  0.82003713122E+02  0.15651496179E+03  0.12509000000E+03 0.  0.
         25    1    3    3    0    0 -0.17514974392E+01 -0.13160129686E+02 -0.70371712466E+02  0.14413862346E+03  0.12509000000E+03 0.  0.
<mgrwt>
<rscale>  2 0.44500832E+03</rscale>
<asrwt>0</asrwt>
<pdfrwt beam="1">  1       21 0.40426456E-01 0.44500832E+03</pdfrwt>
<pdfrwt beam="2">  1       21 0.26484561E-01 0.44500832E+03</pdfrwt>
<totfact> 0.74283500E+04</totfact>
</mgrwt>
</event>
<event>
 7    0  0.4709932E-002  0.4644827E+03  0.7546771E-02  0.1023489E+00
         21   -1    0    0  502  501  0.00000000000E+00  0.00000000000E+00  0.44410271436E+03  0.44410271436E+03  0.00000000000E+00 0. -1.
         21   -1    0    0  501  502 -0.00000000000E+00 -0.00000000000E+00 -0.12144945851E+03  0.12144945851E+03  0.00000000000E+00 0. -1.
      99926    2    1    2    0    0 -0.35527136788E-14  0.00000000000E+00  0.32265325585E+03  0.56555217287E+03  0.46448265493E+03 0.  0.
      99925    2    3    3    0    0 -0.30023487174E+02  0.41530466885E+02  0.33621790906E+03  0.42969306431E+03  0.26261656018E+03 0.  0.
         25    1    4    4    0    0 -0.23149610292E+02  0.30031886095E+01  0.10979121807E+03  0.16806707966E+03  0.12509000000E+03 0.  0.
         25    1    3    3    0    0  0.30023487174E+02 -0.41530466885E+02 -0.13564653213E+02  0.13585910856E+03  0.12509000000E+03 0.  0.
         25    1    4    4    0    0 -0.68738768819E+01  0.38527278275E+02  0.22642669099E+03  0.26162598466E+03  0.12509000000E+03 0.  0.
<mgrwt>
<rscale>  2 0.46448265E+03</rscale>
<asrwt>0</asrwt>
<pdfrwt beam="1">  1       21 0.65309222E-01 0.46448265E+03</pdfrwt>
<pdfrwt beam="2">  1       21 0.17860215E-01 0.46448265E+03</pdfrwt>
<totfact> 0.56492794E+04</totfact>
</mgrwt>
</event>
<event>
 7    0  0.4709932E-002  0.4592264E+03  0.7546771E-02  0.1025006E+00
         21   -1    0    0  502  501  0.00000000000E+00  0.00000000000E+00  0.31283463858E+03  0.31283463858E+03  0.00000000000E+00 0.  1.
         21   -1    0    0  501  502 -0.00000000000E+00 -0.00000000000E+00 -0.16853064474E+03  0.16853064474E+03  0.00000000000E+00 0.  1.
      99926    2    1    2    0    0  0.00000000000E+00  0.00000000000E+00  0.14430399385E+03  0.48136528332E+03  0.45922640750E+03 0.  0.
      99925    2    3    3    0    0  0.50831416713E+02  0.12042245644E+02  0.20025960933E+03  0.33471131096E+03  0.26305684167E+03 0.  0.
         25    1    4    4    0    0  0.60384589895E+02  0.97714371234E+01  0.13201566343E+03  0.19187866784E+03  0.12509000000E+03 0.  0.
         25    1    3    3    0    0 -0.50831416713E+02 -0.12042245644E+02 -0.55955615484E+02  0.14665397236E+03  0.12509000000E+03 0.  0.
         25    1    4    4    0    0 -0.95531731820E+01  0.22708085210E+01  0.68243945900E+02  0.14283264312E+03  0.12509000000E+03 0.  0.
<mgrwt>
<rscale>  2 0.45922641E+03</rscale>
<asrwt>0</asrwt>
<pdfrwt beam="1">  1       21 0.46005094E-01 0.45922641E+03</pdfrwt>
<pdfrwt beam="2">  1       21 0.24783918E-01 0.45922641E+03</pdfrwt>
<totfact> 0.64412811E+04</totfact>
</mgrwt>
</event>
<event>
 6    0  0.4709932E-002  0.4601439E+03  0.7546771E-02  0.1024740E+00
         21   -1    0    0  502  501  0.00000000000E+00  0.00000000000E+00  0.22743962687E+03  0.22743962687E+03  0.00000000000E+00 0.  1.
         21   -1    0    0  501  502 -0.00000000000E+00 -0.00000000000E+00 -0.23273469209E+03  0.23273469209E+03  0.00000000000E+00 0.  1.
      99926    2    1    2    0    0  0.00000000000E+00  0.00000000000E+00 -0.52950652251E+01  0.46017431896E+03  0.46014385372E+03 0.  0.
         25    1    3    3    0    0  0.41579154600E+02  0.47774983684E+02  0.59480990220E+02  0.15230486355E+03  0.12509000000E+03 0.  0.
         25    1    3    3    0    0 -0.87188404656E+02 -0.38629494427E+02 -0.74522091377E+02  0.17405489349E+03  0.12509000000E+03 0.  0.
         25    1    3    3    0    0  0.45609250056E+02 -0.91454892573E+01  0.97460359321E+01  0.13381456192E+03  0.12509000000E+03 0.  0.
<mgrwt>
<rscale>  2 0.46014385E+03</rscale>
<asrwt>0</asrwt>
<pdfrwt beam="1">  1       21 0.33447004E-01 0.46014385E+03</pdfrwt>
<pdfrwt beam="2">  1       21 0.34225690E-01 0.46014385E+03</pdfrwt>
<totfact> 0.65440984E+04</totfact>
</mgrwt>
</event>
<event>
 7    0  0.4709932E-002  0.4580035E+03  0.7546771E-02  0.1025362E+00
         21   -1    0    0  502  501  0.00000000000E+00  0.00000000000E+00  0.23740301735E+03  0.23740301735E+03  0.00000000000E+00 0.  1.
         21   -1    0    0  501  502 -0.00000000000E+00 -0.00000000000E+00 -0.22089779464E+03  0.22089779464E+03  0.00000000000E+00 0.  1.
      99926    2    1    2    0    0  0.00000000000E+00  0.55511151231E-16  0.16505222706E+02  0.45830081199E+03  0.45800350642E+03 0.  0.
      99925    2    3    3    0    0 -0.10695215091E+03 -0.39909541369E+00 -0.33552243990E+02  0.28627703476E+03  0.26341956209E+03 0.  0.
         25    1    3    3    0    0  0.10695215091E+03  0.39909541369E+00  0.50057466696E+02  0.17202377723E+03  0.12509000000E+03 0.  0.
         25    1    4    4    0    0 -0.18787797098E+02  0.51831328440E+00 -0.41231379989E+02  0.13304429625E+03  0.12509000000E+03 0.  0.
         25    1    4    4    0    0 -0.88164353812E+02 -0.91740869809E+00  0.76791359998E+01  0.15323273851E+03  0.12509000000E+03 0.  0.
<mgrwt>
<rscale>  2 0.45800351E+03</rscale>
<asrwt>0</asrwt>
<pdfrwt beam="1">  1       21 0.34912209E-01 0.45800351E+03</pdfrwt>
<pdfrwt beam="2">  1       21 0.32484970E-01 0.45800351E+03</pdfrwt>
<totfact> 0.66692025E+04</totfact>
</mgrwt>
</event>
<event>
 7    0  0.4709932E-002  0.4560032E+03  0.7546771E-02  0.1025947E+00
         21   -1    0    0  502  501  0.00000000000E+00  0.00000000000E+00  0.14507105604E+03  0.14507105604E+03  0.00000000000E+00 0.  1.
         21   -1    0    0  501  502 -0.00000000000E+00 -0.00000000000E+00 -0.35833979924E+03  0.35833979924E+03  0.00000000000E+00 0.  1.
      99926    2    1    2    0    0  0.00000000000E+00  0.00000000000E+00 -0.21326874320E+03  0.50341085528E+03  0.45600321532E+03 0.  0.
      99925    2    3    3    0    0 -0.32903992888E+02  0.10579638238E+03 -0.10405030830E+03  0.30378189472E+03  0.26302362181E+03 0.  0.
         25    1    4    4    0    0 -0.42667660374E+02  0.29488300584E+02 -0.72405139822E+02  0.15355813715E+03  0.12509000000E+03 0.  0.
         25    1    3    3    0    0  0.32903992888E+02 -0.10579638238E+03 -0.10921843490E+03  0.19962896056E+03  0.12509000000E+03 0.  0.
         25    1    4    4    0    0  0.97636674862E+01  0.76308081791E+02 -0.31645168479E+02  0.15022375757E+03  0.12509000000E+03 0.  0.
<mgrwt>
<rscale>  2 0.45600322E+03</rscale>
<asrwt>0</asrwt>
<pdfrwt beam="1">  1       21 0.21333979E-01 0.45600322E+03</pdfrwt>
<pdfrwt beam="2">  1       21 0.52697029E-01 0.45600322E+03</pdfrwt>
<totfact> 0.64516410E+04</totfact>
</mgrwt>
</event>
<event>
 7    0  0.4709932E-002  0.4355354E+03  0.7546771E-02  0.1032126E+00
         21   -1    0    0  502  501  0.00000000000E+00  0.00000000000E+00  0.31533928001E+03  0.31533928001E+03  0.00000000000E+00 0.  1.
         21   -1    0    0  501  502 -0.00000000000E+00 -0.00000000000E+00 -0.15038648495E+03  0.15038648495E+03  0.00000000000E+00 0.  1.
      99926    2    1    2    0    0  0.00000000000E+00  0.00000000000E+00  0.16495279506E+03  0.46572576497E+03  0.43553537578E+03 0.  0.
      99925    2    3    3    0    0  0.64892125534E+02  0.56737274866E+02  0.66121709650E+02  0.28449332345E+03  0.26293395423E+03 0.  0.
         25    1    3    3    0    0 -0.64892125534E+02 -0.56737274866E+02  0.98831085407E+02  0.18123244152E+03  0.12509000000E+03 0.  0.
         25    1    4    4    0    0  0.53519086352E+02  0.86863561847E+01  0.62456280283E+02  0.14996012948E+03  0.12509000000E+03 0.  0.
         25    1    4    4    0    0  0.11373039181E+02  0.48050918681E+02  0.36654293674E+01  0.13453319397E+03  0.12509000000E+03 0.  0.
<mgrwt>
<rscale>  2 0.43553538E+03</rscale>
<asrwt>0</asrwt>
<pdfrwt beam="1">  1       21 0.46373423E-01 0.43553538E+03</pdfrwt>
<pdfrwt beam="2">  1       21 0.22115660E-01 0.43553538E+03</pdfrwt>
<totfact> 0.79317392E+04</totfact>
</mgrwt>
</event>
<event>
 7    0  0.4709932E-002  0.4598709E+03  0.7546771E-02  0.1024819E+00
         21   -1    0    0  502  501  0.00000000000E+00  0.00000000000E+00  0.89460908152E+03  0.89460908152E+03  0.00000000000E+00 0.  1.
         21   -1    0    0  501  502 -0.00000000000E+00 -0.00000000000E+00 -0.59098785943E+02  0.59098785943E+02  0.00000000000E+00 0.  1.
      99926    2    1    2    0    0  0.71054273576E-14  0.00000000000E+00  0.83551029558E+03  0.95370786747E+03  0.45987089759E+03 0.  0.
      99925    2    3    3    0    0  0.61036268058E+02 -0.80421112227E+01  0.31537890767E+03  0.41521527666E+03  0.26296343661E+03 0.  0.
         25    1    4    4    0    0 -0.19170884357E+01 -0.75949366964E+01  0.11074767104E+03  0.16725403742E+03  0.12509000000E+03 0.  0.
         25    1    3    3    0    0 -0.61036268058E+02  0.80421112227E+01  0.52013138791E+03  0.53849259081E+03  0.12509000000E+03 0.  0.
         25    1    4    4    0    0  0.62953356494E+02 -0.44717452632E+00  0.20463123663E+03  0.24796123924E+03  0.12509000000E+03 0.  0.
<mgrwt>
<rscale>  2 0.45987090E+03</rscale>
<asrwt>0</asrwt>
<pdfrwt beam="1">  1       21 0.13156015E+00 0.45987090E+03</pdfrwt>
<pdfrwt beam="2">  1       21 0.86909985E-02 0.45987090E+03</pdfrwt>
<totfact> 0.39466261E+04</totfact>
</mgrwt>
</event>
<event>
 7    0  0.4709932E-002  0.4555245E+03  0.7546771E-02  0.1026087E+00
         21   -1    0    0  502  501  0.00000000000E+00  0.00000000000E+00  0.17737647200E+03  0.17737647200E+03  0.00000000000E+00 0.  1.
         21   -1    0    0  501  502 -0.00000000000E+00 -0.00000000000E+00 -0.29246061247E+03  0.29246061247E+03  0.00000000000E+00 0.  1.
      99926    2    1    2    0    0  0.00000000000E+00  0.00000000000E+00 -0.11508414047E+03  0.46983708447E+03  0.45552445220E+03 0.  0.
      99925    2    3    3    0    0 -0.87013396799E+02  0.73234848651E+02 -0.72918557469E+02  0.29559553153E+03  0.26291619950E+03 0.  0.
         25    1    4    4    0    0 -0.28321180139E+02  0.51543401102E+02 -0.79527031089E+00  0.13822789876E+03  0.12509000000E+03 0.  0.
         25    1    4    4    0    0 -0.58692216661E+02  0.21691447550E+02 -0.72123287158E+02  0.15736763277E+03  0.12509000000E+03 0.  0.
         25    1    3    3    0    0  0.87013396799E+02 -0.73234848651E+02 -0.42165582996E+02  0.17424155293E+03  0.12509000000E+03 0.  0.
<mgrwt>
<rscale>  2 0.45552445E+03</rscale>
<asrwt>0</asrwt>
<pdfrwt beam="1">  1       21 0.26084775E-01 0.45552445E+03</pdfrwt>
<pdfrwt beam="2">  1       21 0.43008913E-01 0.45552445E+03</pdfrwt>
<totfact> 0.67167971E+04</totfact>
</mgrwt>
</event>
<event>
 7    0  0.4709932E-002  0.4539487E+03  0.7546771E-02  0.1026551E+00
         21   -1    0    0  502  501  0.00000000000E+00  0.00000000000E+00  0.56862986401E+02  0.56862986401E+02  0.00000000000E+00 0.  1.
         21   -1    0    0  501  502 -0.00000000000E+00 -0.00000000000E+00 -0.90599109784E+03  0.90599109784E+03  0.00000000000E+00 0.  1.
      99926    2    1    2    0    0  0.14210854715E-13 -0.35527136788E-14 -0.84912811144E+03  0.96285408424E+03  0.45394871726E+03 0.  0.
      99925    2    3    3    0    0  0.10985286083E+03 -0.21174478213E+02 -0.51725614609E+03  0.59096361778E+03  0.26299822682E+03 0.  0.
         25    1    4    4    0    0  0.70817714681E+02 -0.41409416649E+02 -0.22701045540E+03  0.27186603955E+03  0.12509000000E+03 0.  0.
         25    1    3    3    0    0 -0.10985286083E+03  0.21174478213E+02 -0.33187196535E+03  0.37189046646E+03  0.12509000000E+03 0.  0.
         25    1    4    4    0    0  0.39035146148E+02  0.20234938436E+02 -0.29024569069E+03  0.31909757823E+03  0.12509000000E+03 0.  0.
<mgrwt>
<rscale>  2 0.45394872E+03</rscale>
<asrwt>0</asrwt>
<pdfrwt beam="1">  1       21 0.83622044E-02 0.45394872E+03</pdfrwt>
<pdfrwt beam="2">  1       21 0.13323398E+00 0.45394872E+03</pdfrwt>
<totfact> 0.40960318E+04</totfact>
</mgrwt>
</event>
<event>
 7    0  0.4709932E-002  0.4556408E+03  0.7546771E-02  0.1026053E+00
         21   -1    0    0  502  501  0.00000000000E+00  0.00000000000E+00  0.28380347614E+03  0.28380347614E+03  0.00000000000E+00 0. -1.
         21   -1    0    0  501  502 -0.00000000000E+00 -0.00000000000E+00 -0.18288057643E+03  0.18288057643E+03  0.00000000000E+00 0. -1.
      99926    2    1    2    0    0  0.00000000000E+00 -0.14210854715E-13  0.10092289971E+03  0.46668405257E+03  0.45564083799E+03 0.  0.
      99925    2    3    3    0    0  0.73728685236E+02  0.78153434925E+02  0.25132237257E+02  0.28520234266E+03  0.26299214531E+03 0.  0.
         25    1    4    4    0    0  0.55973081941E+01  0.88865950981E+01  0.16056893047E+02  0.12655288754E+03  0.12509000000E+03 0.  0.
         25    1    4    4    0    0  0.68131377042E+02  0.69266839827E+02  0.90753442102E+01  0.15864945512E+03  0.12509000000E+03 0.  0.
         25    1    3    3    0    0 -0.73728685236E+02 -0.78153434925E+02  0.75790662452E+02  0.18148170991E+03  0.12509000000E+03 0.  0.
<mgrwt>
<rscale>  2 0.45564084E+03</rscale>
<asrwt>0</asrwt>
<pdfrwt beam="1">  1       21 0.41735805E-01 0.45564084E+03</pdfrwt>
<pdfrwt beam="2">  1       21 0.26894202E-01 0.45564084E+03</pdfrwt>
<totfact> 0.67340605E+04</totfact>
</mgrwt>
</event>
<event>
 7    0  0.4709932E-002  0.4452766E+03  0.7546771E-02  0.1029140E+00
         21   -1    0    0  502  501  0.00000000000E+00  0.00000000000E+00  0.47420797873E+03  0.47420797873E+03  0.00000000000E+00 0. -1.
         21   -1    0    0  501  502 -0.00000000000E+00 -0.00000000000E+00 -0.10452758113E+03  0.10452758113E+03  0.00000000000E+00 0. -1.
      99926    2    1    2    0    0  0.00000000000E+00  0.00000000000E+00  0.36968039760E+03  0.57873555986E+03  0.44527660154E+03 0.  0.
      99925    2    3    3    0    0 -0.40744349178E+02 -0.91209432177E+02  0.27148126879E+03  0.39093289879E+03  0.26295853198E+03 0.  0.
         25    1    3    3    0    0  0.40744349178E+02  0.91209432177E+02  0.98199128806E+02  0.18780266107E+03  0.12509000000E+03 0.  0.
         25    1    4    4    0    0 -0.54708807079E+02 -0.69514416492E+02  0.13814012185E+03  0.20628986654E+03  0.12509000000E+03 0.  0.
         25    1    4    4    0    0  0.13964457901E+02 -0.21695015685E+02  0.13334114694E+03  0.18464303225E+03  0.12509000000E+03 0.  0.
<mgrwt>
<rscale>  2 0.44527660E+03</rscale>
<asrwt>0</asrwt>
<pdfrwt beam="1">  1       21 0.69736467E-01 0.44527660E+03</pdfrwt>
<pdfrwt beam="2">  1       21 0.15371703E-01 0.44527660E+03</pdfrwt>
<totfact> 0.64849735E+04</totfact>
</mgrwt>
</event>
<event>
 7    0  0.4709932E-002  0.4482611E+03  0.7546771E-02  0.1028242E+00
         21   -1    0    0  502  501  0.00000000000E+00  0.00000000000E+00  0.44968591510E+03  0.44968591510E+03  0.00000000000E+00 0.  1.
         21   -1    0    0  501  502 -0.00000000000E+00 -0.00000000000E+00 -0.11171019640E+03  0.11171019640E+03  0.00000000000E+00 0.  1.
      99926    2    1    2    0    0  0.00000000000E+00  0.00000000000E+00  0.33797571871E+03  0.56139611150E+03  0.44826109308E+03 0.  0.
      99925    2    3    3    0    0  0.51851033284E+02 -0.93231586907E+02  0.20959077462E+03  0.35280354112E+03  0.26298552692E+03 0.  0.
         25    1    4    4    0    0  0.54625518369E+02 -0.79209182186E+02  0.12074528894E+03  0.19870826530E+03  0.12509000000E+03 0.  0.
         25    1    3    3    0    0 -0.51851033284E+02  0.93231586907E+02  0.12838494408E+03  0.20859257038E+03  0.12509000000E+03 0.  0.
         25    1    4    4    0    0 -0.27744850852E+01 -0.14022404721E+02  0.88845485686E+02  0.15409527581E+03  0.12509000000E+03 0.  0.
<mgrwt>
<rscale>  2 0.44826109E+03</rscale>
<asrwt>0</asrwt>
<pdfrwt beam="1">  1       21 0.66130281E-01 0.44826109E+03</pdfrwt>
<pdfrwt beam="2">  1       21 0.16427970E-01 0.44826109E+03</pdfrwt>
<totfact> 0.64488888E+04</totfact>
</mgrwt>
</event>
<event>
 7    0  0.4709932E-002  0.4554663E+03  0.7546771E-02  0.1026104E+00
         21   -1    0    0  502  501  0.00000000000E+00  0.00000000000E+00  0.25754817816E+03  0.25754817816E+03  0.00000000000E+00 0. -1.
         21   -1    0    0  501  502 -0.00000000000E+00 -0.00000000000E+00 -0.20136961078E+03  0.20136961078E+03  0.00000000000E+00 0. -1.
      99926    2    1    2    0    0  0.00000000000E+00  0.35527136788E-14  0.56178567378E+02  0.45891778894E+03  0.45546625075E+03 0.  0.
      99925    2    3    3    0    0  0.70747687735E+02  0.24705798899E+02 -0.50777181231E+02  0.27807904287E+03  0.26293348994E+03 0.  0.
         25    1    3    3    0    0 -0.70747687735E+02 -0.24705798899E+02  0.10695574861E+03  0.18083874607E+03  0.12509000000E+03 0.  0.
         25    1    4    4    0    0  0.32616210311E+02  0.52596964504E+02 -0.30168227569E+02  0.14278616146E+03  0.12509000000E+03 0.  0.
         25    1    4    4    0    0  0.38131477424E+02 -0.27891165606E+02 -0.20608953662E+02  0.13529288141E+03  0.12509000000E+03 0.  0.
<mgrwt>
<rscale>  2 0.45546625E+03</rscale>
<asrwt>0</asrwt>
<pdfrwt beam="1">  1       21 0.37874732E-01 0.45546625E+03</pdfrwt>
<pdfrwt beam="2">  1       21 0.29613178E-01 0.45546625E+03</pdfrwt>
<totfact> 0.68006250E+04</totfact>
</mgrwt>
</event>
<event>
 7    0  0.4709932E-002  0.4543821E+03  0.7546771E-02  0.1026423E+00
         21   -1    0    0  502  501  0.00000000000E+00  0.00000000000E+00  0.17798758232E+03  0.17798758232E+03  0.00000000000E+00 0. -1.
         21   -1    0    0  501  502 -0.00000000000E+00 -0.00000000000E+00 -0.28999650839E+03  0.28999650839E+03  0.00000000000E+00 0. -1.
      99926    2    1    2    0    0  0.00000000000E+00  0.00000000000E+00 -0.11200892607E+03  0.46798409071E+03  0.45438211853E+03 0.  0.
      99925    2    3    3    0    0 -0.92684696547E+02 -0.43676455471E+02 -0.11860937677E+03  0.30615343914E+03  0.26298984449E+03 0.  0.
         25    1    4    4    0    0 -0.82370121033E+02 -0.46005303594E+02 -0.63731637421E+02  0.16914654743E+03  0.12509000000E+03 0.  0.
         25    1    3    3    0    0  0.92684696547E+02  0.43676455471E+02  0.66004507017E+01  0.16183065156E+03  0.12509000000E+03 0.  0.
         25    1    4    4    0    0 -0.10314575514E+02  0.23288481234E+01 -0.54877739348E+02  0.13700689172E+03  0.12509000000E+03 0.  0.
<mgrwt>
<rscale>  2 0.45438212E+03</rscale>
<asrwt>0</asrwt>
<pdfrwt beam="1">  1       21 0.26174645E-01 0.45438212E+03</pdfrwt>
<pdfrwt beam="2">  1       21 0.42646545E-01 0.45438212E+03</pdfrwt>
<totfact> 0.67918299E+04</totfact>
</mgrwt>
</event>
<event>
 7    0  0.4709932E-002  0.4552539E+03  0.7546771E-02  0.1026167E+00
         21   -1    0    0  502  501  0.00000000000E+00  0.00000000000E+00  0.59366552241E+02  0.59366552241E+02  0.00000000000E+00 0.  1.
         21   -1    0    0  501  502 -0.00000000000E+00 -0.00000000000E+00 -0.87278154559E+03  0.87278154559E+03  0.00000000000E+00 0.  1.
      99926    2    1    2    0    0  0.00000000000E+00  0.00000000000E+00 -0.81341499335E+03  0.93214809783E+03  0.45525391254E+03 0.  0.
      99925    2    3    3    0    0  0.33381632259E+02  0.97830819068E+02 -0.41632093924E+03  0.50317677194E+03  0.26301813024E+03 0.  0.
         25    1    4    4    0    0 -0.10676169132E+02  0.72484006335E+02 -0.24952584649E+03  0.28858026254E+03  0.12509000000E+03 0.  0.
         25    1    3    3    0    0 -0.33381632259E+02 -0.97830819068E+02 -0.39709405411E+03  0.42897132589E+03  0.12509000000E+03 0.  0.
         25    1    4    4    0    0  0.44057801391E+02  0.25346812733E+02 -0.16679509275E+03  0.21459650940E+03  0.12509000000E+03 0.  0.
<mgrwt>
<rscale>  2 0.45525391E+03</rscale>
<asrwt>0</asrwt>
<pdfrwt beam="1">  1       21 0.87303757E-02 0.45525391E+03</pdfrwt>
<pdfrwt beam="2">  1       21 0.12835022E+00 0.45525391E+03</pdfrwt>
<totfact> 0.41789228E+04</totfact>
</mgrwt>
</event>
<event>
 7    0  0.4709932E-002  0.4489677E+03  0.7546771E-02  0.1028030E+00
         21   -1    0    0  502  501  0.00000000000E+00  0.00000000000E+00  0.27314972720E+02  0.27314972720E+02  0.00000000000E+00 0.  1.
         21   -1    0    0  501  502 -0.00000000000E+00 -0.00000000000E+00 -0.18448855316E+04  0.18448855316E+04  0.00000000000E+00 0.  1.
      99926    2    1    2    0    0  0.00000000000E+00  0.00000000000E+00 -0.18175705589E+04  0.18722005044E+04  0.44896769580E+03 0.  0.
      99925    2    3    3    0    0 -0.41174784794E+02 -0.98566112103E+02 -0.12010540959E+04  0.12341168903E+04  0.26287433517E+03 0.  0.
         25    1    3    3    0    0  0.41174784794E+02  0.98566112103E+02 -0.61651646297E+03  0.63808361409E+03  0.12509000000E+03 0.  0.
         25    1    4    4    0    0  0.41970379628E+01 -0.40855744685E+02 -0.70944932869E+03  0.72156265499E+03  0.12509000000E+03 0.  0.
         25    1    4    4    0    0 -0.45371822757E+02 -0.57710367418E+02 -0.49160476725E+03  0.51255423527E+03  0.12509000000E+03 0.  0.
<mgrwt>
<rscale>  2 0.44896770E+03</rscale>
<asrwt>0</asrwt>
<pdfrwt beam="1">  1       21 0.40169087E-02 0.44896770E+03</pdfrwt>
<pdfrwt beam="2">  1       21 0.27130663E+00 0.44896770E+03</pdfrwt>
<totfact> 0.16677854E+04</totfact>
</mgrwt>
</event>
<event>
 7    0  0.4709932E-002  0.4562042E+03  0.7546771E-02  0.1025888E+00
         21   -1    0    0  502  501  0.00000000000E+00  0.00000000000E+00  0.23202202501E+03  0.23202202501E+03  0.00000000000E+00 0.  1.
         21   -1    0    0  501  502 -0.00000000000E+00 -0.00000000000E+00 -0.22424839788E+03  0.22424839788E+03  0.00000000000E+00 0.  1.
      99926    2    1    2    0    0  0.00000000000E+00  0.00000000000E+00  0.77736271238E+01  0.45627042289E+03  0.45620419718E+03 0.  0.
      99925    2    3    3    0    0 -0.29579541940E+02  0.80078519116E+02 -0.71277028825E+02  0.28543707477E+03  0.26288094318E+03 0.  0.
         25    1    3    3    0    0  0.29579541940E+02 -0.80078519116E+02  0.79050655949E+02  0.17083334812E+03  0.12509000000E+03 0.  0.
         25    1    4    4    0    0  0.15380341843E+02  0.13912291575E+02 -0.20086424286E+02  0.12837865599E+03  0.12509000000E+03 0.  0.
         25    1    4    4    0    0 -0.44959883783E+02  0.66166227541E+02 -0.51190604539E+02  0.15705841878E+03  0.12509000000E+03 0.  0.
<mgrwt>
<rscale>  2 0.45620420E+03</rscale>
<asrwt>0</asrwt>
<pdfrwt beam="1">  1       21 0.34120886E-01 0.45620420E+03</pdfrwt>
<pdfrwt beam="2">  1       21 0.32977706E-01 0.45620420E+03</pdfrwt>
<totfact> 0.67799050E+04</totfact>
</mgrwt>
</event>
<event>
 7    0  0.4709932E-002  0.4538320E+03  0.7546771E-02  0.1026585E+00
         21   -1    0    0  502  501  0.00000000000E+00  0.00000000000E+00  0.19023475071E+03  0.19023475071E+03  0.00000000000E+00 0.  1.
         21   -1    0    0  501  502 -0.00000000000E+00 -0.00000000000E+00 -0.27067015741E+03  0.27067015741E+03  0.00000000000E+00 0.  1.
      99926    2    1    2    0    0  0.35527136788E-14  0.00000000000E+00 -0.80435406703E+02  0.46090490812E+03  0.45383199499E+03 0.  0.
      99925    2    3    3    0    0 -0.20982577607E+02  0.11014124009E+03 -0.55319256753E+02  0.29105294193E+03  0.26283118823E+03 0.  0.
         25    1    4    4    0    0  0.10430126033E+02  0.57170552304E+02  0.74842948875E+01  0.13813320510E+03  0.12509000000E+03 0.  0.
         25    1    3    3    0    0  0.20982577607E+02 -0.11014124009E+03 -0.25116149950E+02  0.16985196619E+03  0.12509000000E+03 0.  0.
         25    1    4    4    0    0 -0.31412703641E+02  0.52970687787E+02 -0.62803551640E+02  0.15291973683E+03  0.12509000000E+03 0.  0.
<mgrwt>
<rscale>  2 0.45383199E+03</rscale>
<asrwt>0</asrwt>
<pdfrwt beam="1">  1       21 0.27975699E-01 0.45383199E+03</pdfrwt>
<pdfrwt beam="2">  1       21 0.39804435E-01 0.45383199E+03</pdfrwt>
<totfact> 0.68751311E+04</totfact>
</mgrwt>
</event>
<event>
 7    0  0.4709932E-002  0.4595169E+03  0.7546771E-02  0.1024921E+00
         21   -1    0    0  502  501  0.00000000000E+00  0.00000000000E+00  0.68677487632E+02  0.68677487632E+02  0.00000000000E+00 0.  1.
         21   -1    0    0  501  502 -0.00000000000E+00 -0.00000000000E+00 -0.76864987679E+03  0.76864987679E+03  0.00000000000E+00 0.  1.
      99926    2    1    2    0    0  0.26645352591E-14  0.14210854715E-13 -0.69997238916E+03  0.83732736442E+03  0.45951688721E+03 0.  0.
      99925    2    3    3    0    0 -0.47791379281E+01 -0.11375778935E+03 -0.38683838392E+03  0.48142837857E+03  0.26299367600E+03 0.  0.
         25    1    4    4    0    0 -0.23740498474E+02 -0.73741151679E+02 -0.25480546288E+03  0.29423579104E+03  0.12509000000E+03 0.  0.
         25    1    3    3    0    0  0.47791379281E+01  0.11375778935E+03 -0.31313400523E+03  0.35589898585E+03  0.12509000000E+03 0.  0.
         25    1    4    4    0    0  0.18961360546E+02 -0.40016637675E+02 -0.13203292105E+03  0.18719258753E+03  0.12509000000E+03 0.  0.
<mgrwt>
<rscale>  2 0.45951689E+03</rscale>
<asrwt>0</asrwt>
<pdfrwt beam="1">  1       21 0.10099631E-01 0.45951689E+03</pdfrwt>
<pdfrwt beam="2">  1       21 0.11303674E+00 0.45951689E+03</pdfrwt>
<totfact> 0.44416628E+04</totfact>
</mgrwt>
</event>
<event>
 7    0  0.4709932E-002  0.4593980E+03  0.7546771E-02  0.1024956E+00
         21   -1    0    0  502  501  0.00000000000E+00  0.00000000000E+00  0.11435777361E+03  0.11435777361E+03  0.00000000000E+00 0.  1.
         21   -1    0    0  501  502 -0.00000000000E+00 -0.00000000000E+00 -0.46137330909E+03  0.46137330909E+03  0.00000000000E+00 0.  1.
      99926    2    1    2    0    0  0.71054273576E-14  0.00000000000E+00 -0.34701553547E+03  0.57573108270E+03  0.45939797314E+03 0.  0.
      99925    2    3    3    0    0  0.53470515836E+02  0.10215555329E+03 -0.19139652839E+03  0.34516734618E+03  0.26308366095E+03 0.  0.
         25    1    4    4    0    0  0.21267386101E+02  0.32443482643E+02 -0.46664514869E+02  0.13903224923E+03  0.12509000000E+03 0.  0.
         25    1    4    4    0    0  0.32203129735E+02  0.69712070645E+02 -0.14473201352E+03  0.20613509695E+03  0.12509000000E+03 0.  0.
         25    1    3    3    0    0 -0.53470515836E+02 -0.10215555329E+03 -0.15561900708E+03  0.23056373652E+03  0.12509000000E+03 0.  0.
<mgrwt>
<rscale>  2 0.45939797E+03</rscale>
<asrwt>0</asrwt>
<pdfrwt beam="1">  1       21 0.16817320E-01 0.45939797E+03</pdfrwt>
<pdfrwt beam="2">  1       21 0.67849016E-01 0.45939797E+03</pdfrwt>
<totfact> 0.58148935E+04</totfact>
</mgrwt>
</event>
<event>
 7    0  0.4709932E-002  0.4635921E+03  0.7546771E-02  0.1023745E+00
         21   -1    0    0  502  501  0.00000000000E+00  0.00000000000E+00  0.11219533381E+04  0.11219533381E+04  0.00000000000E+00 0.  1.
         21   -1    0    0  501  502 -0.00000000000E+00 -0.00000000000E+00 -0.47889169661E+02  0.47889169661E+02  0.00000000000E+00 0.  1.
      99926    2    1    2    0    0  0.00000000000E+00  0.00000000000E+00  0.10740641684E+04  0.11698425077E+04  0.46359212141E+03 0.  0.
      99925    2    3    3    0    0 -0.43046158722E+02  0.92429512398E+02  0.50265956259E+03  0.57608589245E+03  0.26232066840E+03 0.  0.
         25    1    4    4    0    0  0.16545620497E+02  0.56648223096E+02  0.24339828904E+03  0.27995180647E+03  0.12509000000E+03 0.  0.
         25    1    4    4    0    0 -0.59591779220E+02  0.35781289302E+02  0.25926127355E+03  0.29613408598E+03  0.12509000000E+03 0.  0.
         25    1    3    3    0    0  0.43046158722E+02 -0.92429512398E+02  0.57140460580E+03  0.59375661526E+03  0.12509000000E+03 0.  0.
<mgrwt>
<rscale>  2 0.46359212E+03</rscale>
<asrwt>0</asrwt>
<pdfrwt beam="1">  1       21 0.16499312E+00 0.46359212E+03</pdfrwt>
<pdfrwt beam="2">  1       21 0.70425257E-02 0.46359212E+03</pdfrwt>
<totfact> 0.30998732E+04</totfact>
</mgrwt>
</event>
<event>
 7    0  0.4709932E-002  0.4549016E+03  0.7546771E-02  0.1026270E+00
         21   -1    0    0  502  501  0.00000000000E+00  0.00000000000E+00  0.56969752588E+03  0.56969752588E+03  0.00000000000E+00 0.  1.
         21   -1    0    0  501  502 -0.00000000000E+00 -0.00000000000E+00 -0.90809344233E+02  0.90809344233E+02  0.00000000000E+00 0.  1.
      99926    2    1    2    0    0 -0.71054273576E-14  0.00000000000E+00  0.47888818164E+03  0.66050687011E+03  0.45490156622E+03 0.  0.
      99925    2    3    3    0    0 -0.44705224677E+02 -0.97414188374E+02  0.35366061580E+03  0.45358289239E+03  0.26300860801E+03 0.  0.
         25    1    4    4    0    0 -0.48930313598E+02 -0.33216702912E+02  0.13314438920E+03  0.19202203368E+03  0.12509000000E+03 0.  0.
         25    1    3    3    0    0  0.44705224677E+02  0.97414188374E+02  0.12522756584E+03  0.20692397772E+03  0.12509000000E+03 0.  0.
         25    1    4    4    0    0  0.42250889207E+01 -0.64197485462E+02  0.22051622660E+03  0.26156085871E+03  0.12509000000E+03 0.  0.
<mgrwt>
<rscale>  2 0.45490157E+03</rscale>
<asrwt>0</asrwt>
<pdfrwt beam="1">  1       21 0.83779046E-01 0.45490157E+03</pdfrwt>
<pdfrwt beam="2">  1       21 0.13354316E-01 0.45490157E+03</pdfrwt>
<totfact> 0.55142525E+04</totfact>
</mgrwt>
</event>
<event>
 7    0  0.4709932E-002  0.4493548E+03  0.7546771E-02  0.1027915E+00
         21   -1    0    0  502  501  0.00000000000E+00  0.00000000000E+00  0.14854814587E+03  0.14854814587E+03  0.00000000000E+00 0.  1.
         21   -1    0    0  501  502 -0.00000000000E+00 -0.00000000000E+00 -0.33982205360E+03  0.33982205360E+03  0.00000000000E+00 0.  1.
      99926    2    1    2    0    0  0.00000000000E+00 -0.71054273576E-14 -0.19127390773E+03  0.48837019948E+03  0.44935480854E+03 0.  0.
      99925    2    3    3    0    0 -0.85599042381E+02 -0.47819331782E+02 -0.16983019977E+03  0.32799181795E+03  0.26291148956E+03 0.  0.
         25    1    4    4    0    0 -0.40032849756E+02 -0.46379643001E+02 -0.47438319426E+02  0.14714483543E+03  0.12509000000E+03 0.  0.
         25    1    3    3    0    0  0.85599042381E+02  0.47819331782E+02 -0.21443707962E+02  0.16037838152E+03  0.12509000000E+03 0.  0.
         25    1    4    4    0    0 -0.45566192626E+02 -0.14396887810E+01 -0.12239188034E+03  0.18084698252E+03  0.12509000000E+03 0.  0.
<mgrwt>
<rscale>  2 0.44935481E+03</rscale>
<asrwt>0</asrwt>
<pdfrwt beam="1">  1       21 0.21845316E-01 0.44935481E+03</pdfrwt>
<pdfrwt beam="2">  1       21 0.49973831E-01 0.44935481E+03</pdfrwt>
<totfact> 0.69142760E+04</totfact>
</mgrwt>
</event>
<event>
 7    0  0.4709932E-002  0.4167796E+03  0.7546771E-02  0.1038120E+00
         21   -1    0    0  502  501  0.00000000000E+00  0.00000000000E+00  0.11171404367E+03  0.11171404367E+03  0.00000000000E+00 0.  1.
         21   -1    0    0  501  502 -0.00000000000E+00 -0.00000000000E+00 -0.38872748181E+03  0.38872748181E+03  0.00000000000E+00 0.  1.
      99926    2    1    2    0    0  0.00000000000E+00  0.00000000000E+00 -0.27701343813E+03  0.50044152548E+03  0.41677964863E+03 0.  0.
      99925    2    3    3    0    0  0.22590812912E+02 -0.39603578934E+02 -0.11463324704E+03  0.29045670971E+03  0.26295537758E+03 0.  0.
         25    1    4    4    0    0 -0.27804113269E+02 -0.81664780033E+01 -0.55472988370E+02  0.13987323052E+03  0.12509000000E+03 0.  0.
         25    1    3    3    0    0 -0.22590812912E+02  0.39603578934E+02 -0.16238019109E+03  0.20998481576E+03  0.12509000000E+03 0.  0.
         25    1    4    4    0    0  0.50394926181E+02 -0.31437100931E+02 -0.59160258672E+02  0.15058347919E+03  0.12509000000E+03 0.  0.
<mgrwt>
<rscale>  2 0.41677965E+03</rscale>
<asrwt>0</asrwt>
<pdfrwt beam="1">  1       21 0.16428536E-01 0.41677965E+03</pdfrwt>
<pdfrwt beam="2">  1       21 0.57165806E-01 0.41677965E+03</pdfrwt>
<totfact> 0.89416253E+04</totfact>
</mgrwt>
</event>
<event>
 7    0  0.4709932E-002  0.4717276E+03  0.7546771E-02  0.1021434E+00
         21   -1    0    0  502  501  0.00000000000E+00  0.00000000000E+00  0.14853390677E+03  0.14853390677E+03  0.00000000000E+00 0.  1.
         21   -1    0    0  501  502 -0.00000000000E+00 -0.00000000000E+00 -0.37453888727E+03  0.37453888727E+03  0.00000000000E+00 0.  1.
      99926    2    1    2    0    0  0.00000000000E+00  0.00000000000E+00 -0.22600498050E+03  0.52307279404E+03  0.47172756614E+03 0.  0.
      99925    2    3    3    0    0  0.12159902303E+03 -0.36259976445E+02 -0.11995004838E+03  0.31571738654E+03  0.26303677645E+03 0.  0.
         25    1    4    4    0    0  0.30675556248E+02  0.31018981560E+01 -0.29047572429E+02  0.13206771402E+03  0.12509000000E+03 0.  0.
         25    1    3    3    0    0 -0.12159902303E+03  0.36259976445E+02 -0.10605493211E+03  0.20735540750E+03  0.12509000000E+03 0.  0.
         25    1    4    4    0    0  0.90923466777E+02 -0.39361874601E+02 -0.90902475953E+02  0.18364967252E+03  0.12509000000E+03 0.  0.
<mgrwt>
<rscale>  2 0.47172757E+03</rscale>
<asrwt>0</asrwt>
<pdfrwt beam="1">  1       21 0.21843222E-01 0.47172757E+03</pdfrwt>
<pdfrwt beam="2">  1       21 0.55079247E-01 0.47172757E+03</pdfrwt>
<totfact> 0.55883693E+04</totfact>
</mgrwt>
</event>
<event>
 7    0  0.4709932E-002  0.4504962E+03  0.7546771E-02  0.1027574E+00
         21   -1    0    0  502  501  0.00000000000E+00  0.00000000000E+00  0.41465589822E+03  0.41465589822E+03  0.00000000000E+00 0.  1.
         21   -1    0    0  501  502 -0.00000000000E+00 -0.00000000000E+00 -0.12235860271E+03  0.12235860271E+03  0.00000000000E+00 0.  1.
      99926    2    1    2    0    0  0.00000000000E+00  0.00000000000E+00  0.29229729551E+03  0.53701450093E+03  0.45049624332E+03 0.  0.
      99925    2    3    3    0    0 -0.31040784490E+02  0.16649054893E+02  0.61841040054E+02  0.27244255399E+03  0.26298271741E+03 0.  0.
         25    1    4    4    0    0 -0.10945574407E+01  0.43760702736E+02  0.17310462863E+02  0.13365387157E+03  0.12509000000E+03 0.  0.
         25    1    4    4    0    0 -0.29946227050E+02 -0.27111647842E+02  0.44530577192E+02  0.13878868242E+03  0.12509000000E+03 0.  0.
         25    1    3    3    0    0  0.31040784490E+02 -0.16649054893E+02  0.23045625545E+03  0.26457194694E+03  0.12509000000E+03 0.  0.
<mgrwt>
<rscale>  2 0.45049624E+03</rscale>
<asrwt>0</asrwt>
<pdfrwt beam="1">  1       21 0.60978808E-01 0.45049624E+03</pdfrwt>
<pdfrwt beam="2">  1       21 0.17993912E-01 0.45049624E+03</pdfrwt>
<totfact> 0.65019648E+04</totfact>
</mgrwt>
</event>
<event>
 7    0  0.4709932E-002  0.4444146E+03  0.7546771E-02  0.1029401E+00
         21   -1    0    0  502  501  0.00000000000E+00  0.00000000000E+00  0.15900880773E+03  0.15900880773E+03  0.00000000000E+00 0. -1.
         21   -1    0    0  501  502 -0.00000000000E+00 -0.00000000000E+00 -0.31052418566E+03  0.31052418566E+03  0.00000000000E+00 0. -1.
      99926    2    1    2    0    0  0.00000000000E+00  0.35527136788E-14 -0.15151537794E+03  0.46953299339E+03  0.44441458361E+03 0.  0.
      99925    2    3    3    0    0  0.59375791074E+02  0.17502170996E+02 -0.18316069284E+03  0.32642204129E+03  0.26300513129E+03 0.  0.
         25    1    4    4    0    0  0.95329366076E+01  0.34683629866E+02 -0.60765819713E+02  0.14364478413E+03  0.12509000000E+03 0.  0.
         25    1    3    3    0    0 -0.59375791074E+02 -0.17502170996E+02  0.31645314898E+02  0.14311095210E+03  0.12509000000E+03 0.  0.
         25    1    4    4    0    0  0.49842854466E+02 -0.17181458870E+02 -0.12239487312E+03  0.18277725717E+03  0.12509000000E+03 0.  0.
<mgrwt>
<rscale>  2 0.44441458E+03</rscale>
<asrwt>0</asrwt>
<pdfrwt beam="1">  1       21 0.23383648E-01 0.44441458E+03</pdfrwt>
<pdfrwt beam="2">  1       21 0.45665321E-01 0.44441458E+03</pdfrwt>
<totfact> 0.73449250E+04</totfact>
</mgrwt>
</event>
<event>
 6    0  0.4709932E-002  0.4473486E+03  0.7546771E-02  0.1028516E+00
         21   -1    0    0  502  501  0.00000000000E+00  0.00000000000E+00  0.16761339243E+04  0.16761339243E+04  0.00000000000E+00 0.  1.
         21   -1    0    0  501  502 -0.00000000000E+00 -0.00000000000E+00 -0.29848561411E+02  0.29848561411E+02  0.00000000000E+00 0.  1.
      99926    2    1    2    0    0 -0.14210854715E-13  0.00000000000E+00  0.16462853629E+04  0.17059824857E+04  0.44734857269E+03 0.  0.
         25    1    3    3    0    0  0.91196435487E+02  0.27344155089E+02  0.45192617087E+03  0.47848643103E+03  0.12509000000E+03 0.  0.
         25    1    3    3    0    0  0.32227496136E+01 -0.10442956760E+02  0.54494033257E+03  0.55921991705E+03  0.12509000000E+03 0.  0.
         25    1    3    3    0    0 -0.94419185101E+02 -0.16901198329E+02  0.64941885942E+03  0.66827613760E+03  0.12509000000E+03 0.  0.
<mgrwt>
<rscale>  2 0.44734857E+03</rscale>
<asrwt>0</asrwt>
<pdfrwt beam="1">  1       21 0.24649022E+00 0.44734857E+03</pdfrwt>
<pdfrwt beam="2">  1       21 0.43894955E-02 0.44734857E+03</pdfrwt>
<totfact> 0.20318061E+04</totfact>
</mgrwt>
</event>
<event>
 7    0  0.4709932E-002  0.4545718E+03  0.7546771E-02  0.1026367E+00
         21   -1    0    0  502  501  0.00000000000E+00  0.00000000000E+00  0.20222573595E+04  0.20222573595E+04  0.00000000000E+00 0.  1.
         21   -1    0    0  501  502 -0.00000000000E+00 -0.00000000000E+00 -0.25545155903E+02  0.25545155903E+02  0.00000000000E+00 0.  1.
      99926    2    1    2    0    0 -0.17763568394E-14 -0.35527136788E-14  0.19967122036E+04  0.20478025154E+04  0.45457179642E+03 0.  0.
      99925    2    3    3    0    0 -0.50743541812E+01  0.16321847159E+02  0.75493266292E+03  0.79962140375E+03  0.26301884346E+03 0.  0.
         25    1    3    3    0    0  0.50743541812E+01 -0.16321847159E+02  0.12417795407E+04  0.12481811117E+04  0.12509000000E+03 0.  0.
         25    1    4    4    0    0  0.22538510280E+02 -0.22334581639E+02  0.40010014649E+03  0.42039797014E+03  0.12509000000E+03 0.  0.
         25    1    4    4    0    0 -0.27612864461E+02  0.38656428798E+02  0.35483251644E+03  0.37922343360E+03  0.12509000000E+03 0.  0.
<mgrwt>
<rscale>  2 0.45457180E+03</rscale>
<asrwt>0</asrwt>
<pdfrwt beam="1">  1       21 0.29739068E+00 0.45457180E+03</pdfrwt>
<pdfrwt beam="2">  1       21 0.37566419E-02 0.45457180E+03</pdfrwt>
<totfact> 0.12988059E+04</totfact>
</mgrwt>
</event>
<event>
 7    0  0.4709932E-002  0.4426912E+03  0.7546771E-02  0.1029924E+00
         21   -1    0    0  502  501  0.00000000000E+00  0.00000000000E+00  0.25978631139E+03  0.25978631139E+03  0.00000000000E+00 0.  1.
         21   -1    0    0  501  502 -0.00000000000E+00 -0.00000000000E+00 -0.18859296456E+03  0.18859296456E+03  0.00000000000E+00 0.  1.
      99926    2    1    2    0    0  0.00000000000E+00  0.00000000000E+00  0.71193346832E+02  0.44837927595E+03  0.44269118183E+03 0.  0.
      99925    2    3    3    0    0  0.27438337985E+02  0.75564070981E+02 -0.16989743723E+02  0.27550198775E+03  0.26296369074E+03 0.  0.
         25    1    4    4    0    0  0.40782299098E+02  0.23669544162E+02 -0.35114591225E+02  0.13821716918E+03  0.12509000000E+03 0.  0.
         25    1    4    4    0    0 -0.13343961113E+02  0.51894526818E+02  0.18124847502E+02  0.13728481857E+03  0.12509000000E+03 0.  0.
         25    1    3    3    0    0 -0.27438337985E+02 -0.75564070981E+02  0.88183090555E+02  0.17287728820E+03  0.12509000000E+03 0.  0.
<mgrwt>
<rscale>  2 0.44269118E+03</rscale>
<asrwt>0</asrwt>
<pdfrwt beam="1">  1       21 0.38203870E-01 0.44269118E+03</pdfrwt>
<pdfrwt beam="2">  1       21 0.27734259E-01 0.44269118E+03</pdfrwt>
<totfact> 0.76249887E+04</totfact>
</mgrwt>
</event>
<event>
 7    0  0.4709932E-002  0.4718510E+03  0.7546771E-02  0.1021399E+00
         21   -1    0    0  502  501  0.00000000000E+00  0.00000000000E+00  0.12121125514E+03  0.12121125514E+03  0.00000000000E+00 0. -1.
         21   -1    0    0  501  502 -0.00000000000E+00 -0.00000000000E+00 -0.45920530876E+03  0.45920530876E+03  0.00000000000E+00 0. -1.
      99926    2    1    2    0    0  0.00000000000E+00  0.88817841970E-15 -0.33799405361E+03  0.58041656390E+03  0.47185104362E+03 0.  0.
      99925    2    3    3    0    0 -0.51189121432E+02  0.79726765944E+01 -0.35404178247E+03  0.44407534700E+03  0.26300844159E+03 0.  0.
         25    1    3    3    0    0  0.51189121432E+02 -0.79726765944E+01  0.16047728860E+02  0.13634121690E+03  0.12509000000E+03 0.  0.
         25    1    4    4    0    0 -0.63922949158E+02  0.33446370190E+01 -0.21176801166E+03  0.25414666807E+03  0.12509000000E+03 0.  0.
         25    1    4    4    0    0  0.12733827726E+02  0.46280395753E+01 -0.14227377081E+03  0.18992867893E+03  0.12509000000E+03 0.  0.
<mgrwt>
<rscale>  2 0.47185104E+03</rscale>
<asrwt>0</asrwt>
<pdfrwt beam="1">  1       21 0.17825185E-01 0.47185104E+03</pdfrwt>
<pdfrwt beam="2">  1       21 0.67530192E-01 0.47185104E+03</pdfrwt>
<totfact> 0.52542356E+04</totfact>
</mgrwt>
</event>
<event>
 7    0  0.4709932E-002  0.4536657E+03  0.7546771E-02  0.1026635E+00
         21   -1    0    0  502  501  0.00000000000E+00  0.00000000000E+00  0.23634773397E+03  0.23634773397E+03  0.00000000000E+00 0.  1.
         21   -1    0    0  501  502 -0.00000000000E+00 -0.00000000000E+00 -0.21770102193E+03  0.21770102193E+03  0.00000000000E+00 0.  1.
      99926    2    1    2    0    0  0.00000000000E+00  0.14210854715E-13  0.18646712041E+02  0.45404875590E+03  0.45366570607E+03 0.  0.
      99925    2    3    3    0    0 -0.24148801838E+02 -0.10344228656E+03  0.46986704548E+02  0.28751307037E+03  0.26300673746E+03 0.  0.
         25    1    4    4    0    0  0.11215264376E+02 -0.20546862815E+02  0.34449782739E+01  0.12730801900E+03  0.12509000000E+03 0.  0.
         25    1    4    4    0    0 -0.35364066215E+02 -0.82895423743E+02  0.43541726274E+02  0.16020505137E+03  0.12509000000E+03 0.  0.
         25    1    3    3    0    0  0.24148801838E+02  0.10344228656E+03 -0.28339992507E+02  0.16653568553E+03  0.12509000000E+03 0.  0.
<mgrwt>
<rscale>  2 0.45366571E+03</rscale>
<asrwt>0</asrwt>
<pdfrwt beam="1">  1       21 0.34757020E-01 0.45366571E+03</pdfrwt>
<pdfrwt beam="2">  1       21 0.32014856E-01 0.45366571E+03</pdfrwt>
<totfact> 0.69350943E+04</totfact>
</mgrwt>
</event>
<event>
 7    0  0.4709932E-002  0.4601277E+03  0.7546771E-02  0.1024744E+00
         21   -1    0    0  502  501  0.00000000000E+00  0.00000000000E+00  0.45740039987E+02  0.45740039987E+02  0.00000000000E+00 0.  1.
         21   -1    0    0  501  502 -0.00000000000E+00 -0.00000000000E+00 -0.11571782904E+04  0.11571782904E+04  0.00000000000E+00 0.  1.
      99926    2    1    2    0    0  0.17763568394E-14  0.00000000000E+00 -0.11114382504E+04  0.12029183304E+04  0.46012772695E+03 0.  0.
      99925    2    3    3    0    0 -0.83214622632E+01  0.76672729560E+02 -0.92945981921E+03  0.96901319638E+03  0.26295068939E+03 0.  0.
         25    1    4    4    0    0 -0.30136574616E+02  0.53218898494E+02 -0.57943513370E+03  0.59593040412E+03  0.12509000000E+03 0.  0.
         25    1    3    3    0    0  0.83214622632E+01 -0.76672729560E+02 -0.18197843123E+03  0.23390513403E+03  0.12509000000E+03 0.  0.
         25    1    4    4    0    0  0.21815112353E+02  0.23453831066E+02 -0.35002468550E+03  0.37308279226E+03  0.12509000000E+03 0.  0.
<mgrwt>
<rscale>  2 0.46012773E+03</rscale>
<asrwt>0</asrwt>
<pdfrwt beam="1">  1       21 0.67264755E-02 0.46012773E+03</pdfrwt>
<pdfrwt beam="2">  1       21 0.17017330E+00 0.46012773E+03</pdfrwt>
<totfact> 0.30814226E+04</totfact>
</mgrwt>
</event>
<event>
 7    0  0.4709932E-002  0.4576261E+03  0.7546771E-02  0.1025472E+00
         21   -1    0    0  502  501  0.00000000000E+00  0.00000000000E+00  0.81943412865E+02  0.81943412865E+02  0.00000000000E+00 0. -1.
         21   -1    0    0  501  502 -0.00000000000E+00 -0.00000000000E+00 -0.63892150247E+03  0.63892150247E+03  0.00000000000E+00 0. -1.
      99926    2    1    2    0    0 -0.17763568394E-14 -0.71054273576E-14 -0.55697808960E+03  0.72086491533E+03  0.45762608521E+03 0.  0.
      99925    2    3    3    0    0 -0.91646712874E+01 -0.50021706218E+02 -0.51323905848E+03  0.57892558591E+03  0.26297212891E+03 0.  0.
         25    1    4    4    0    0 -0.34171519309E+02  0.23497833713E+01 -0.23621315724E+03  0.26947611762E+03  0.12509000000E+03 0.  0.
         25    1    4    4    0    0  0.25006848022E+02 -0.52371489589E+02 -0.27702590124E+03  0.30944946830E+03  0.12509000000E+03 0.  0.
         25    1    3    3    0    0  0.91646712874E+01  0.50021706218E+02 -0.43739031123E+02  0.14193932942E+03  0.12509000000E+03 0.  0.
<mgrwt>
<rscale>  2 0.45762609E+03</rscale>
<asrwt>0</asrwt>
<pdfrwt beam="1">  1       21 0.12050502E-01 0.45762609E+03</pdfrwt>
<pdfrwt beam="2">  1       21 0.93959045E-01 0.45762609E+03</pdfrwt>
<totfact> 0.50728798E+04</totfact>
</mgrwt>
</event>
<event>
 7    0  0.4709932E-002  0.4526149E+03  0.7546771E-02  0.1026945E+00
         21   -1    0    0  502  501  0.00000000000E+00  0.00000000000E+00  0.69977144551E+02  0.69977144551E+02  0.00000000000E+00 0.  1.
         21   -1    0    0  501  502 -0.00000000000E+00 -0.00000000000E+00 -0.73188256986E+03  0.73188256986E+03  0.00000000000E+00 0.  1.
      99926    2    1    2    0    0  0.00000000000E+00  0.00000000000E+00 -0.66190542530E+03  0.80185971441E+03  0.45261485784E+03 0.  0.
      99925    2    3    3    0    0  0.31470508298E+02  0.95966033200E+02 -0.33617669850E+03  0.43861519072E+03  0.26299931653E+03 0.  0.
         25    1    4    4    0    0  0.30190835602E+02  0.95145018777E+01 -0.13978528496E+03  0.19023523935E+03  0.12509000000E+03 0.  0.
         25    1    3    3    0    0 -0.31470508298E+02 -0.95966033200E+02 -0.32572872681E+03  0.36324452369E+03  0.12509000000E+03 0.  0.
         25    1    4    4    0    0  0.12796726965E+01  0.86451531322E+02 -0.19639141354E+03  0.24837995137E+03  0.12509000000E+03 0.  0.
<mgrwt>
<rscale>  2 0.45261486E+03</rscale>
<asrwt>0</asrwt>
<pdfrwt beam="1">  1       21 0.10290758E-01 0.45261486E+03</pdfrwt>
<pdfrwt beam="2">  1       21 0.10762978E+00 0.45261486E+03</pdfrwt>
<totfact> 0.48577903E+04</totfact>
</mgrwt>
</event>
<event>
 7    0  0.4709932E-002  0.4532183E+03  0.7546771E-02  0.1026767E+00
         21   -1    0    0  502  501  0.00000000000E+00  0.00000000000E+00  0.26959778474E+03  0.26959778474E+03  0.00000000000E+00 0. -1.
         21   -1    0    0  501  502 -0.00000000000E+00 -0.00000000000E+00 -0.19047527145E+03  0.19047527145E+03  0.00000000000E+00 0. -1.
      99926    2    1    2    0    0 -0.14210854715E-13  0.14210854715E-13  0.79122513292E+02  0.46007305618E+03  0.45321831926E+03 0.  0.
      99925    2    3    3    0    0  0.76350873185E+02 -0.66702186752E+02  0.27837155122E+01  0.28187721532E+03  0.26299881728E+03 0.  0.
         25    1    3    3    0    0 -0.76350873185E+02  0.66702186752E+02  0.76338797780E+02  0.17819584086E+03  0.12509000000E+03 0.  0.
         25    1    4    4    0    0  0.35793726825E+02 -0.74706229771E+02 -0.20154713735E+01  0.15004593254E+03  0.12509000000E+03 0.  0.
         25    1    4    4    0    0  0.40557146360E+02  0.80040430197E+01  0.47991868857E+01  0.13183128278E+03  0.12509000000E+03 0.  0.
<mgrwt>
<rscale>  2 0.45321832E+03</rscale>
<asrwt>0</asrwt>
<pdfrwt beam="1">  1       21 0.39646733E-01 0.45321832E+03</pdfrwt>
<pdfrwt beam="2">  1       21 0.28011069E-01 0.45321832E+03</pdfrwt>
<totfact> 0.69151636E+04</totfact>
</mgrwt>
</event>
<event>
 7    0  0.4709932E-002  0.4448183E+03  0.7546771E-02  0.1029279E+00
         21   -1    0    0  502  501  0.00000000000E+00  0.00000000000E+00  0.12394037475E+04  0.12394037475E+04  0.00000000000E+00 0. -1.
         21   -1    0    0  501  502 -0.00000000000E+00 -0.00000000000E+00 -0.39910982771E+02  0.39910982771E+02  0.00000000000E+00 0. -1.
      99926    2    1    2    0    0  0.00000000000E+00  0.00000000000E+00  0.11994927647E+04  0.12793147302E+04  0.44481826226E+03 0.  0.
      99925    2    3    3    0    0  0.77595116159E+02 -0.67072898585E+02  0.72512338015E+03  0.77812255465E+03  0.26296581115E+03 0.  0.
         25    1    4    4    0    0  0.13868373145E+02 -0.56170454262E+02  0.29659873925E+03  0.32705622136E+03  0.12509000000E+03 0.  0.
         25    1    3    3    0    0 -0.77595116159E+02  0.67072898585E+02  0.47436938453E+03  0.50119217558E+03  0.12509000000E+03 0.  0.
         25    1    4    4    0    0  0.63726743015E+02 -0.10902444323E+02  0.42852464089E+03  0.45106633328E+03  0.12509000000E+03 0.  0.
<mgrwt>
<rscale>  2 0.44481826E+03</rscale>
<asrwt>0</asrwt>
<pdfrwt beam="1">  1       21 0.18226523E+00 0.44481826E+03</pdfrwt>
<pdfrwt beam="2">  1       21 0.58692630E-02 0.44481826E+03</pdfrwt>
<totfact> 0.32196904E+04</totfact>
</mgrwt>
</event>
<event>
 7    0  0.4709932E-002  0.4530827E+03  0.7546771E-02  0.1026807E+00
         21   -1    0    0  502  501  0.00000000000E+00  0.00000000000E+00  0.80874473883E+03  0.80874473883E+03  0.00000000000E+00 0.  1.
         21   -1    0    0  501  502 -0.00000000000E+00 -0.00000000000E+00 -0.63457573314E+02  0.63457573314E+02  0.00000000000E+00 0.  1.
      99926    2    1    2    0    0  0.00000000000E+00 -0.71054273576E-14  0.74528716552E+03  0.87220231215E+03  0.45308267924E+03 0.  0.
      99925    2    3    3    0    0 -0.55957631947E+02 -0.48868004883E+02  0.30972362112E+03  0.41298292255E+03  0.26288178781E+03 0.  0.
         25    1    3    3    0    0  0.55957631947E+02  0.48868004883E+02  0.43556354439E+03  0.45921938960E+03  0.12509000000E+03 0.  0.
         25    1    4    4    0    0 -0.72380891506E+01  0.11403504931E+02  0.15082130961E+03  0.19641029859E+03  0.12509000000E+03 0.  0.
         25    1    4    4    0    0 -0.48719542797E+02 -0.60271509814E+02  0.15890231152E+03  0.21657262397E+03  0.12509000000E+03 0.  0.
<mgrwt>
<rscale>  2 0.45308268E+03</rscale>
<asrwt>0</asrwt>
<pdfrwt beam="1">  1       21 0.11893304E+00 0.45308268E+03</pdfrwt>
<pdfrwt beam="2">  1       21 0.93319965E-02 0.45308268E+03</pdfrwt>
<totfact> 0.45131400E+04</totfact>
</mgrwt>
</event>
<event>
 7    0  0.4709932E-002  0.5010834E+03  0.7546771E-02  0.1013497E+00
         21   -1    0    0  502  501  0.00000000000E+00  0.00000000000E+00  0.37446361445E+03  0.37446361445E+03  0.00000000000E+00 0. -1.
         21   -1    0    0  501  502 -0.00000000000E+00 -0.00000000000E+00 -0.16762951821E+03  0.16762951821E+03  0.00000000000E+00 0. -1.
      99926    2    1    2    0    0  0.00000000000E+00  0.00000000000E+00  0.20683409624E+03  0.54209313266E+03  0.50108344726E+03 0.  0.
      99925    2    3    3    0    0  0.19665265037E+02  0.12076852541E+03  0.27229185324E+02  0.29133988442E+03  0.26299380286E+03 0.  0.
         25    1    4    4    0    0  0.22340684478E+02  0.25421968737E+02 -0.90505440946E+01  0.12990305280E+03  0.12509000000E+03 0.  0.
         25    1    4    4    0    0 -0.26754194409E+01  0.95346556673E+02  0.36279729419E+02  0.16143683163E+03  0.12509000000E+03 0.  0.
         25    1    3    3    0    0 -0.19665265037E+02 -0.12076852541E+03  0.17960491092E+03  0.25075324824E+03  0.12509000000E+03 0.  0.
<mgrwt>
<rscale>  2 0.50108345E+03</rscale>
<asrwt>0</asrwt>
<pdfrwt beam="1">  1       21 0.55068179E-01 0.50108345E+03</pdfrwt>
<pdfrwt beam="2">  1       21 0.24651400E-01 0.50108345E+03</pdfrwt>
<totfact> 0.43985284E+04</totfact>
</mgrwt>
</event>
<event>
 7    0  0.4709932E-002  0.4554551E+03  0.7546771E-02  0.1026108E+00
         21   -1    0    0  502  501  0.00000000000E+00  0.00000000000E+00  0.49090110619E+03  0.49090110619E+03  0.00000000000E+00 0. -1.
         21   -1    0    0  501  502 -0.00000000000E+00 -0.00000000000E+00 -0.10564212235E+03  0.10564212235E+03  0.00000000000E+00 0. -1.
      99926    2    1    2    0    0  0.00000000000E+00  0.35527136788E-14  0.38525898384E+03  0.59654322854E+03  0.45545508986E+03 0.  0.
      99925    2    3    3    0    0  0.88883286784E+02  0.28117672439E+02  0.32736821542E+03  0.43014103101E+03  0.26298387008E+03 0.  0.
         25    1    4    4    0    0  0.15742615433E+02  0.36633444242E+02  0.12651767397E+03  0.18232956180E+03  0.12509000000E+03 0.  0.
         25    1    3    3    0    0 -0.88883286784E+02 -0.28117672439E+02  0.57890768425E+02  0.16640219753E+03  0.12509000000E+03 0.  0.
         25    1    4    4    0    0  0.73140671351E+02 -0.85157718029E+01  0.20085054145E+03  0.24781146921E+03  0.12509000000E+03 0.  0.
<mgrwt>
<rscale>  2 0.45545509E+03</rscale>
<asrwt>0</asrwt>
<pdfrwt beam="1">  1       21 0.72191338E-01 0.45545509E+03</pdfrwt>
<pdfrwt beam="2">  1       21 0.15535606E-01 0.45545509E+03</pdfrwt>
<totfact> 0.58680238E+04</totfact>
</mgrwt>
</event>
<event>
 7    0  0.4709932E-002  0.4599433E+03  0.7546771E-02  0.1024798E+00
         21   -1    0    0  502  501  0.00000000000E+00  0.00000000000E+00  0.14562677998E+04  0.14562677998E+04  0.00000000000E+00 0.  1.
         21   -1    0    0  501  502 -0.00000000000E+00 -0.00000000000E+00 -0.36316783247E+02  0.36316783247E+02  0.00000000000E+00 0.  1.
      99926    2    1    2    0    0  0.14210854715E-13  0.00000000000E+00  0.14199510166E+04  0.14925845831E+04  0.45994330970E+03 0.  0.
      99925    2    3    3    0    0  0.10103051951E+03 -0.54032102828E+02  0.80124081401E+03  0.85104233437E+03  0.26298208845E+03 0.  0.
         25    1    4    4    0    0  0.69150428632E+02 -0.46838404293E+02  0.33517878830E+03  0.36737983903E+03  0.12509000000E+03 0.  0.
         25    1    3    3    0    0 -0.10103051951E+03  0.54032102828E+02  0.61871020257E+03  0.64154224870E+03  0.12509000000E+03 0.  0.
         25    1    4    4    0    0  0.31880090874E+02 -0.71936985350E+01  0.46606202571E+03  0.48366249535E+03  0.12509000000E+03 0.  0.
<mgrwt>
<rscale>  2 0.45994331E+03</rscale>
<asrwt>0</asrwt>
<pdfrwt beam="1">  1       21 0.21415699E+00 0.45994331E+03</pdfrwt>
<pdfrwt beam="2">  1       21 0.53407044E-02 0.45994331E+03</pdfrwt>
<totfact> 0.23063114E+04</totfact>
</mgrwt>
</event>
<event>
 7    0  0.4709932E-002  0.4525264E+03  0.7546771E-02  0.1026971E+00
         21   -1    0    0  502  501  0.00000000000E+00  0.00000000000E+00  0.34317274568E+03  0.34317274568E+03  0.00000000000E+00 0.  1.
         21   -1    0    0  501  502 -0.00000000000E+00 -0.00000000000E+00 -0.14918154796E+03  0.14918154796E+03  0.00000000000E+00 0.  1.
      99926    2    1    2    0    0  0.00000000000E+00  0.14210854715E-13  0.19399119773E+03  0.49235429364E+03  0.45252642538E+03 0.  0.
      99925    2    3    3    0    0 -0.49300143075E+02 -0.71428828825E+02  0.47992086528E+02  0.28141394599E+03  0.26335904567E+03 0.  0.
         25    1    4    4    0    0 -0.26029608233E+02 -0.24669141192E+00 -0.48810892051E+00  0.12777068409E+03  0.12509000000E+03 0.  0.
         25    1    4    4    0    0 -0.23270534842E+02 -0.71182137413E+02  0.48480195448E+02  0.15364326191E+03  0.12509000000E+03 0.  0.
         25    1    3    3    0    0  0.49300143075E+02  0.71428828825E+02  0.14599911120E+03  0.21094034765E+03  0.12509000000E+03 0.  0.
<mgrwt>
<rscale>  2 0.45252643E+03</rscale>
<asrwt>0</asrwt>
<pdfrwt beam="1">  1       21 0.50466580E-01 0.45252643E+03</pdfrwt>
<pdfrwt beam="2">  1       21 0.21938463E-01 0.45252643E+03</pdfrwt>
<totfact> 0.67119556E+04</totfact>
</mgrwt>
</event>
<event>
 6    0  0.4709932E-002  0.4629292E+03  0.7546771E-02  0.1023935E+00
         21   -1    0    0  502  501  0.00000000000E+00  0.00000000000E+00  0.28649829693E+03  0.28649829693E+03  0.00000000000E+00 0. -1.
         21   -1    0    0  501  502 -0.00000000000E+00 -0.00000000000E+00 -0.18700237471E+03  0.18700237471E+03  0.00000000000E+00 0. -1.
      99926    2    1    2    0    0  0.00000000000E+00  0.00000000000E+00  0.99495922221E+02  0.47350067164E+03  0.46292920355E+03 0.  0.
         25    1    3    3    0    0 -0.22157179742E+02 -0.93577710276E+01  0.15526094148E+03  0.20082822645E+03  0.12509000000E+03 0.  0.
         25    1    3    3    0    0  0.16964830209E+02  0.15886073166E+02 -0.72108164347E+02  0.14624386568E+03  0.12509000000E+03 0.  0.
         25    1    3    3    0    0  0.51923495335E+01 -0.65283021382E+01  0.16343145091E+02  0.12642857950E+03  0.12509000000E+03 0.  0.
<mgrwt>
<rscale>  2 0.46292920E+03</rscale>
<asrwt>0</asrwt>
<pdfrwt beam="1">  1       21 0.42132103E-01 0.46292920E+03</pdfrwt>
<pdfrwt beam="2">  1       21 0.27500349E-01 0.46292920E+03</pdfrwt>
<totfact> 0.63111280E+04</totfact>
</mgrwt>
</event>
<event>
 7    0  0.4709932E-002  0.4581312E+03  0.7546771E-02  0.1025325E+00
         21   -1    0    0  502  501  0.00000000000E+00  0.00000000000E+00  0.18518044994E+04  0.18518044994E+04  0.00000000000E+00 0. -1.
         21   -1    0    0  501  502 -0.00000000000E+00 -0.00000000000E+00 -0.28335096222E+02  0.28335096222E+02  0.00000000000E+00 0. -1.
      99926    2    1    2    0    0  0.00000000000E+00  0.00000000000E+00  0.18234694032E+04  0.18801395956E+04  0.45813124178E+03 0.  0.
      99925    2    3    3    0    0  0.18372159595E+02  0.94717856470E+02  0.87936356049E+03  0.92290798369E+03  0.26300164688E+03 0.  0.
         25    1    3    3    0    0 -0.18372159595E+02 -0.94717856470E+02  0.94410584267E+03  0.95723161191E+03  0.12509000000E+03 0.  0.
         25    1    4    4    0    0  0.83543281724E+01  0.82790166917E+02  0.55303702049E+03  0.57308067553E+03  0.12509000000E+03 0.  0.
         25    1    4    4    0    0  0.10017831423E+02  0.11927689554E+02  0.32632654000E+03  0.34982730816E+03  0.12509000000E+03 0.  0.
<mgrwt>
<rscale>  2 0.45813124E+03</rscale>
<asrwt>0</asrwt>
<pdfrwt beam="1">  1       21 0.27232411E+00 0.45813124E+03</pdfrwt>
<pdfrwt beam="2">  1       21 0.41669272E-02 0.45813124E+03</pdfrwt>
<totfact> 0.15389682E+04</totfact>
</mgrwt>
</event>
<event>
 7    0  0.4709932E-002  0.4684151E+03  0.7546771E-02  0.1022368E+00
         21   -1    0    0  502  501  0.00000000000E+00  0.00000000000E+00  0.64548375572E+02  0.64548375572E+02  0.00000000000E+00 0.  1.
         21   -1    0    0  501  502 -0.00000000000E+00 -0.00000000000E+00 -0.84979953236E+03  0.84979953236E+03  0.00000000000E+00 0.  1.
      99926    2    1    2    0    0  0.00000000000E+00  0.00000000000E+00 -0.78525115679E+03  0.91434790794E+03  0.46841511238E+03 0.  0.
      99925    2    3    3    0    0 -0.10467186906E+03  0.41664638124E+02 -0.59556408666E+03  0.66073238215E+03  0.26301816907E+03 0.  0.
         25    1    3    3    0    0  0.10467186906E+03 -0.41664638124E+02 -0.18968707013E+03  0.25361552578E+03  0.12509000000E+03 0.  0.
         25    1    4    4    0    0 -0.38093390201E+02  0.48740370486E+02 -0.35502227607E+03  0.38146435574E+03  0.12509000000E+03 0.  0.
         25    1    4    4    0    0 -0.66578478862E+02 -0.70757323622E+01 -0.24054181058E+03  0.27926802641E+03  0.12509000000E+03 0.  0.
<mgrwt>
<rscale>  2 0.46841511E+03</rscale>
<asrwt>0</asrwt>
<pdfrwt beam="1">  1       21 0.94924084E-02 0.46841511E+03</pdfrwt>
<pdfrwt beam="2">  1       21 0.12497052E+00 0.46841511E+03</pdfrwt>
<totfact> 0.38422546E+04</totfact>
</mgrwt>
</event>
<event>
 7    0  0.4709932E-002  0.4421104E+03  0.7546771E-02  0.1030101E+00
         21   -1    0    0  502  501  0.00000000000E+00  0.00000000000E+00  0.72252241592E+02  0.72252241592E+02  0.00000000000E+00 0. -1.
         21   -1    0    0  501  502 -0.00000000000E+00 -0.00000000000E+00 -0.67631685880E+03  0.67631685880E+03  0.00000000000E+00 0. -1.
      99926    2    1    2    0    0  0.00000000000E+00  0.00000000000E+00 -0.60406461721E+03  0.74856910039E+03  0.44211043451E+03 0.  0.
      99925    2    3    3    0    0  0.37639658656E+02  0.90314671333E+02 -0.34497891523E+03  0.44468360743E+03  0.26298208115E+03 0.  0.
         25    1    3    3    0    0 -0.37639658656E+02 -0.90314671333E+02 -0.25908570197E+03  0.30388549296E+03  0.12509000000E+03 0.  0.
         25    1    4    4    0    0  0.11089205486E+01  0.47804137217E+02 -0.11294979799E+03  0.17519026858E+03  0.12509000000E+03 0.  0.
         25    1    4    4    0    0  0.36530738107E+02  0.42510534116E+02 -0.23202911724E+03  0.26949333885E+03  0.12509000000E+03 0.  0.
<mgrwt>
<rscale>  2 0.44211043E+03</rscale>
<asrwt>0</asrwt>
<pdfrwt beam="1">  1       21 0.10625330E-01 0.44211043E+03</pdfrwt>
<pdfrwt beam="2">  1       21 0.99458357E-01 0.44211043E+03</pdfrwt>
<totfact> 0.55784231E+04</totfact>
</mgrwt>
</event>
<event>
 7    0  0.4709932E-002  0.4459940E+03  0.7546771E-02  0.1028923E+00
         21   -1    0    0  502  501  0.00000000000E+00  0.00000000000E+00  0.21567643263E+03  0.21567643263E+03  0.00000000000E+00 0.  1.
         21   -1    0    0  501  502 -0.00000000000E+00 -0.00000000000E+00 -0.23056607638E+03  0.23056607638E+03  0.00000000000E+00 0.  1.
      99926    2    1    2    0    0  0.00000000000E+00 -0.35527136788E-14 -0.14889643751E+02  0.44624250901E+03  0.44599403063E+03 0.  0.
      99925    2    3    3    0    0  0.98248417781E+02  0.20327346574E+02 -0.39043278327E+02  0.28407944670E+03  0.26288933383E+03 0.  0.
         25    1    4    4    0    0  0.30758491561E+02  0.44568654430E+02 -0.77067730334E+01  0.13652601295E+03  0.12509000000E+03 0.  0.
         25    1    3    3    0    0 -0.98248417781E+02 -0.20327346574E+02  0.24153634576E+02  0.16216306231E+03  0.12509000000E+03 0.  0.
         25    1    4    4    0    0  0.67489926220E+02 -0.24241307856E+02 -0.31336505294E+02  0.14755343375E+03  0.12509000000E+03 0.  0.
<mgrwt>
<rscale>  2 0.44599403E+03</rscale>
<asrwt>0</asrwt>
<pdfrwt beam="1">  1       21 0.31717123E-01 0.44599403E+03</pdfrwt>
<pdfrwt beam="2">  1       21 0.33906776E-01 0.44599403E+03</pdfrwt>
<totfact> 0.74396134E+04</totfact>
</mgrwt>
</event>
<event>
 7    0  0.4709932E-002  0.4545078E+03  0.7546771E-02  0.1026386E+00
         21   -1    0    0  502  501  0.00000000000E+00  0.00000000000E+00  0.20784240854E+03  0.20784240854E+03  0.00000000000E+00 0.  1.
         21   -1    0    0  501  502 -0.00000000000E+00 -0.00000000000E+00 -0.24847833392E+03  0.24847833392E+03  0.00000000000E+00 0.  1.
      99926    2    1    2    0    0  0.14210854715E-13  0.00000000000E+00 -0.40635925380E+02  0.45632074245E+03  0.45450780143E+03 0.  0.
      99925    2    3    3    0    0 -0.83531986189E+02 -0.26465564671E+02 -0.96903665979E+02  0.29355838328E+03  0.26288435687E+03 0.  0.
         25    1    3    3    0    0  0.83531986189E+02  0.26465564671E+02  0.56267740599E+02  0.16276235917E+03  0.12509000000E+03 0.  0.
         25    1    4    4    0    0 -0.59303393375E+01 -0.55301904141E+01 -0.22728126889E+02  0.12739634132E+03  0.12509000000E+03 0.  0.
         25    1    4    4    0    0 -0.77601646852E+02 -0.20935374257E+02 -0.74175539090E+02  0.16616204196E+03  0.12509000000E+03 0.  0.
<mgrwt>
<rscale>  2 0.45450780E+03</rscale>
<asrwt>0</asrwt>
<pdfrwt beam="1">  1       21 0.30565060E-01 0.45450780E+03</pdfrwt>
<pdfrwt beam="2">  1       21 0.36540931E-01 0.45450780E+03</pdfrwt>
<totfact> 0.68718631E+04</totfact>
</mgrwt>
</event>
<event>
 7    0  0.4709932E-002  0.4513703E+03  0.7546771E-02  0.1027314E+00
         21   -1    0    0  502  501  0.00000000000E+00  0.00000000000E+00  0.21932146410E+04  0.21932146410E+04  0.00000000000E+00 0. -1.
         21   -1    0    0  501  502 -0.00000000000E+00 -0.00000000000E+00 -0.23223347776E+02  0.23223347776E+02  0.00000000000E+00 0. -1.
      99926    2    1    2    0    0  0.71054273576E-14  0.71054273576E-14  0.21699912932E+04  0.22164379888E+04  0.45137029745E+03 0.  0.
      99925    2    3    3    0    0 -0.57526288962E+02 -0.57141485533E+02  0.10066037057E+04  0.10435387560E+04  0.26295948680E+03 0.  0.
         25    1    4    4    0    0 -0.31040892558E+02 -0.57782240022E+01  0.36009150366E+03  0.38250532544E+03  0.12509000000E+03 0.  0.
         25    1    4    4    0    0 -0.26485396404E+02 -0.51363261531E+02  0.64651220203E+03  0.66103343057E+03  0.12509000000E+03 0.  0.
         25    1    3    3    0    0  0.57526288962E+02  0.57141485533E+02  0.11633875875E+04  0.11728992328E+04  0.12509000000E+03 0.  0.
<mgrwt>
<rscale>  2 0.45137030E+03</rscale>
<asrwt>0</asrwt>
<pdfrwt beam="1">  1       21 0.32253142E+00 0.45137030E+03</pdfrwt>
<pdfrwt beam="2">  1       21 0.34151997E-02 0.45137030E+03</pdfrwt>
<totfact> 0.10788112E+04</totfact>
</mgrwt>
</event>
<event>
 7    0  0.4709932E-002  0.4723694E+03  0.7546771E-02  0.1021254E+00
         21   -1    0    0  502  501  0.00000000000E+00  0.00000000000E+00  0.36469745096E+03  0.36469745096E+03  0.00000000000E+00 0. -1.
         21   -1    0    0  501  502 -0.00000000000E+00 -0.00000000000E+00 -0.15295751288E+03  0.15295751288E+03  0.00000000000E+00 0. -1.
      99926    2    1    2    0    0  0.00000000000E+00  0.00000000000E+00  0.21173993808E+03  0.51765496384E+03  0.47236941075E+03 0.  0.
      99925    2    3    3    0    0 -0.82454177890E+02  0.71518073604E+02  0.20616575640E+03  0.35154624671E+03  0.26299604210E+03 0.  0.
         25    1    4    4    0    0 -0.75020312373E+02  0.13022355852E+02  0.10433705295E+03  0.17980922596E+03  0.12509000000E+03 0.  0.
         25    1    4    4    0    0 -0.74338655171E+01  0.58495717752E+02  0.10182870345E+03  0.17173702076E+03  0.12509000000E+03 0.  0.
         25    1    3    3    0    0  0.82454177890E+02 -0.71518073604E+02  0.55741816762E+01  0.16610871713E+03  0.12509000000E+03 0.  0.
<mgrwt>
<rscale>  2 0.47236941E+03</rscale>
<asrwt>0</asrwt>
<pdfrwt beam="1">  1       21 0.53631978E-01 0.47236941E+03</pdfrwt>
<pdfrwt beam="2">  1       21 0.22493752E-01 0.47236941E+03</pdfrwt>
<totfact> 0.55930141E+04</totfact>
</mgrwt>
</event>
<event>
 7    0  0.4709932E-002  0.4624136E+03  0.7546771E-02  0.1024084E+00
         21   -1    0    0  502  501  0.00000000000E+00  0.00000000000E+00  0.32105680829E+03  0.32105680829E+03  0.00000000000E+00 0. -1.
         21   -1    0    0  501  502 -0.00000000000E+00 -0.00000000000E+00 -0.16650194596E+03  0.16650194596E+03  0.00000000000E+00 0. -1.
      99926    2    1    2    0    0  0.00000000000E+00  0.14210854715E-13  0.15455486233E+03  0.48755875425E+03  0.46241359558E+03 0.  0.
      99925    2    3    3    0    0 -0.47221887533E+02  0.72032897003E+02  0.18490398588E+03  0.33268066569E+03  0.26280847859E+03 0.  0.
         25    1    4    4    0    0 -0.34085997354E+02  0.51762505600E+02  0.53075060736E+02  0.14935087001E+03  0.12509000000E+03 0.  0.
         25    1    4    4    0    0 -0.13135890180E+02  0.20270391403E+02  0.13182892515E+03  0.18332979568E+03  0.12509000000E+03 0.  0.
         25    1    3    3    0    0  0.47221887533E+02 -0.72032897003E+02 -0.30349123559E+02  0.15487808855E+03  0.12509000000E+03 0.  0.
<mgrwt>
<rscale>  2 0.46241360E+03</rscale>
<asrwt>0</asrwt>
<pdfrwt beam="1">  1       21 0.47214237E-01 0.46241360E+03</pdfrwt>
<pdfrwt beam="2">  1       21 0.24485580E-01 0.46241360E+03</pdfrwt>
<totfact> 0.62399994E+04</totfact>
</mgrwt>
</event>
<event>
 7    0  0.4709932E-002  0.4584571E+03  0.7546771E-02  0.1025230E+00
         21   -1    0    0  502  501  0.00000000000E+00  0.00000000000E+00  0.11307667234E+04  0.11307667234E+04  0.00000000000E+00 0. -1.
         21   -1    0    0  501  502 -0.00000000000E+00 -0.00000000000E+00 -0.46469105477E+02  0.46469105477E+02  0.00000000000E+00 0. -1.
      99926    2    1    2    0    0  0.00000000000E+00  0.00000000000E+00  0.10842976180E+04  0.11772358289E+04  0.45845705641E+03 0.  0.
      99925    2    3    3    0    0 -0.17849127135E+02  0.10457574185E+03  0.80310383825E+03  0.85170222548E+03  0.26299473140E+03 0.  0.
         25    1    3    3    0    0  0.17849127135E+02 -0.10457574185E+03  0.28119377972E+03  0.32553360345E+03  0.12509000000E+03 0.  0.
         25    1    4    4    0    0 -0.49812100362E+01  0.69816221760E+02  0.52990714933E+03  0.54895192165E+03  0.12509000000E+03 0.  0.
         25    1    4    4    0    0 -0.12867917099E+02  0.34759520088E+02  0.27319668892E+03  0.30275030382E+03  0.12509000000E+03 0.  0.
<mgrwt>
<rscale>  2 0.45845706E+03</rscale>
<asrwt>0</asrwt>
<pdfrwt beam="1">  1       21 0.16628921E+00 0.45845706E+03</pdfrwt>
<pdfrwt beam="2">  1       21 0.68336927E-02 0.45845706E+03</pdfrwt>
<totfact> 0.32014832E+04</totfact>
</mgrwt>
</event>
<event>
 7    0  0.4709932E-002  0.4498159E+03  0.7546771E-02  0.1027777E+00
         21   -1    0    0  502  501  0.00000000000E+00  0.00000000000E+00  0.11585942825E+04  0.11585942825E+04  0.00000000000E+00 0. -1.
         21   -1    0    0  501  502 -0.00000000000E+00 -0.00000000000E+00 -0.43659442476E+02  0.43659442476E+02  0.00000000000E+00 0. -1.
      99926    2    1    2    0    0  0.00000000000E+00  0.00000000000E+00  0.11149348400E+04  0.12022537250E+04  0.44981587535E+03 0.  0.
      99925    2    3    3    0    0 -0.31443002200E+02  0.34710236299E+02  0.44420182079E+03  0.51835040280E+03  0.26301790737E+03 0.  0.
         25    1    3    3    0    0  0.31443002200E+02 -0.34710236299E+02  0.67073301924E+03  0.68390332218E+03  0.12509000000E+03 0.  0.
         25    1    4    4    0    0 -0.11017700264E+02 -0.45555317140E+01  0.28242895146E+03  0.30912095256E+03  0.12509000000E+03 0.  0.
         25    1    4    4    0    0 -0.20425301936E+02  0.39265768013E+02  0.16177286933E+03  0.20922945024E+03  0.12509000000E+03 0.  0.
<mgrwt>
<rscale>  2 0.44981588E+03</rscale>
<asrwt>0</asrwt>
<pdfrwt beam="1">  1       21 0.17038149E+00 0.44981588E+03</pdfrwt>
<pdfrwt beam="2">  1       21 0.64205070E-02 0.44981588E+03</pdfrwt>
<totfact> 0.33413689E+04</totfact>
</mgrwt>
</event>
<event>
 7    0  0.4709932E-002  0.4547516E+03  0.7546771E-02  0.1026314E+00
         21   -1    0    0  502  501  0.00000000000E+00  0.00000000000E+00  0.25761415183E+03  0.25761415183E+03  0.00000000000E+00 0.  1.
         21   -1    0    0  501  502 -0.00000000000E+00 -0.00000000000E+00 -0.20068678363E+03  0.20068678363E+03  0.00000000000E+00 0.  1.
      99926    2    1    2    0    0  0.28865798640E-14 -0.35527136788E-14  0.56927368194E+02  0.45830093546E+03  0.45475160494E+03 0.  0.
      99925    2    3    3    0    0 -0.19701069921E+01 -0.24113215409E+02 -0.75350465932E+02  0.27464293269E+03  0.26299376282E+03 0.  0.
         25    1    4    4    0    0  0.24145529269E+02 -0.43989510325E+02 -0.38112405484E+02  0.14006479627E+03  0.12509000000E+03 0.  0.
         25    1    3    3    0    0  0.19701069921E+01  0.24113215409E+02  0.13227783413E+03  0.18365800277E+03  0.12509000000E+03 0.  0.
         25    1    4    4    0    0 -0.26115636261E+02  0.19876294916E+02 -0.37238060449E+02  0.13457813642E+03  0.12509000000E+03 0.  0.
<mgrwt>
<rscale>  2 0.45475160E+03</rscale>
<asrwt>0</asrwt>
<pdfrwt beam="1">  1       21 0.37884434E-01 0.45475160E+03</pdfrwt>
<pdfrwt beam="2">  1       21 0.29512762E-01 0.45475160E+03</pdfrwt>
<totfact> 0.68440012E+04</totfact>
</mgrwt>
</event>
<event>
 7    0  0.4709932E-002  0.4522955E+03  0.7546771E-02  0.1027040E+00
         21   -1    0    0  502  501  0.00000000000E+00  0.00000000000E+00  0.43998866374E+03  0.43998866374E+03  0.00000000000E+00 0.  1.
         21   -1    0    0  501  502 -0.00000000000E+00 -0.00000000000E+00 -0.11623663403E+03  0.11623663403E+03  0.00000000000E+00 0.  1.
      99926    2    1    2    0    0  0.00000000000E+00  0.00000000000E+00  0.32375202972E+03  0.55622529777E+03  0.45229548432E+03 0.  0.
      99925    2    3    3    0    0 -0.10245020386E+03 -0.17179501954E+02  0.25111022635E+03  0.37813678254E+03  0.26294467285E+03 0.  0.
         25    1    3    3    0    0  0.10245020386E+03  0.17179501954E+02  0.72641803371E+02  0.17808851523E+03  0.12509000000E+03 0.  0.
         25    1    4    4    0    0 -0.15492276305E+02 -0.16864597308E+02  0.86221360078E+02  0.15364262527E+03  0.12509000000E+03 0.  0.
         25    1    4    4    0    0 -0.86957927556E+02 -0.31490464593E+00  0.16488886627E+03  0.22449415727E+03  0.12509000000E+03 0.  0.
<mgrwt>
<rscale>  2 0.45229548E+03</rscale>
<asrwt>0</asrwt>
<pdfrwt beam="1">  1       21 0.64704215E-01 0.45229548E+03</pdfrwt>
<pdfrwt beam="2">  1       21 0.17093623E-01 0.45229548E+03</pdfrwt>
<totfact> 0.62789604E+04</totfact>
</mgrwt>
</event>
<event>
 7    0  0.4709932E-002  0.4621259E+03  0.7546771E-02  0.1024166E+00
         21   -1    0    0  502  501  0.00000000000E+00  0.00000000000E+00  0.34002104573E+03  0.34002104573E+03  0.00000000000E+00 0. -1.
         21   -1    0    0  501  502 -0.00000000000E+00 -0.00000000000E+00 -0.15701995859E+03  0.15701995859E+03  0.00000000000E+00 0. -1.
      99926    2    1    2    0    0  0.00000000000E+00  0.00000000000E+00  0.18300108714E+03  0.49704100433E+03  0.46212591584E+03 0.  0.
      99925    2    3    3    0    0 -0.81054376803E+02  0.73752464951E+01  0.20886413873E+03  0.34557941911E+03  0.26301463876E+03 0.  0.
         25    1    4    4    0    0 -0.20750927933E+02  0.34861988486E+02  0.78598906250E+02  0.15320331398E+03  0.12509000000E+03 0.  0.
         25    1    3    3    0    0  0.81054376803E+02 -0.73752464951E+01 -0.25863051589E+02  0.15146158522E+03  0.12509000000E+03 0.  0.
         25    1    4    4    0    0 -0.60303448870E+02 -0.27486741991E+02  0.13026523248E+03  0.19237610513E+03  0.12509000000E+03 0.  0.
<mgrwt>
<rscale>  2 0.46212592E+03</rscale>
<asrwt>0</asrwt>
<pdfrwt beam="1">  1       21 0.50003095E-01 0.46212592E+03</pdfrwt>
<pdfrwt beam="2">  1       21 0.23091170E-01 0.46212592E+03</pdfrwt>
<totfact> 0.61902419E+04</totfact>
</mgrwt>
</event>
<event>
 7    0  0.4709932E-002  0.4504222E+03  0.7546771E-02  0.1027596E+00
         21   -1    0    0  502  501  0.00000000000E+00  0.00000000000E+00  0.87551779173E+02  0.87551779173E+02  0.00000000000E+00 0.  1.
         21   -1    0    0  501  502 -0.00000000000E+00 -0.00000000000E+00 -0.57931489453E+03  0.57931489453E+03  0.00000000000E+00 0.  1.
      99926    2    1    2    0    0  0.00000000000E+00  0.71054273576E-14 -0.49176311536E+03  0.66686667371E+03  0.45042224509E+03 0.  0.
      99925    2    3    3    0    0  0.67889729908E+02  0.37544617092E+02 -0.42366990117E+03  0.50468527028E+03  0.26304452698E+03 0.  0.
         25    1    4    4    0    0  0.25670741482E+02  0.55321477601E+02 -0.24578885280E+03  0.28245198019E+03  0.12509000000E+03 0.  0.
         25    1    3    3    0    0 -0.67889729908E+02 -0.37544617092E+02 -0.68093214187E+02  0.16218140343E+03  0.12509000000E+03 0.  0.
         25    1    4    4    0    0  0.42218988426E+02 -0.17776860509E+02 -0.17788104838E+03  0.22223329009E+03  0.12509000000E+03 0.  0.
<mgrwt>
<rscale>  2 0.45042225E+03</rscale>
<asrwt>0</asrwt>
<pdfrwt beam="1">  1       21 0.12875261E-01 0.45042225E+03</pdfrwt>
<pdfrwt beam="2">  1       21 0.85193369E-01 0.45042225E+03</pdfrwt>
<totfact> 0.56759564E+04</totfact>
</mgrwt>
</event>
<event>
 7    0  0.4709932E-002  0.4474319E+03  0.7546771E-02  0.1028491E+00
         21   -1    0    0  502  501  0.00000000000E+00  0.00000000000E+00  0.51196935231E+03  0.51196935231E+03  0.00000000000E+00 0.  1.
         21   -1    0    0  501  502 -0.00000000000E+00 -0.00000000000E+00 -0.97757446856E+02  0.97757446856E+02  0.00000000000E+00 0.  1.
      99926    2    1    2    0    0  0.00000000000E+00  0.00000000000E+00  0.41421190545E+03  0.60972679916E+03  0.44743185738E+03 0.  0.
      99925    2    3    3    0    0  0.93533572542E+02 -0.49480466649E+02  0.25634612371E+03  0.38220546188E+03  0.26300348701E+03 0.  0.
         25    1    4    4    0    0  0.10873712561E+02  0.13286444863E+00  0.11305694864E+03  0.16896045991E+03  0.12509000000E+03 0.  0.
         25    1    4    4    0    0  0.82659859981E+02 -0.49613331098E+02  0.14328917507E+03  0.21324500197E+03  0.12509000000E+03 0.  0.
         25    1    3    3    0    0 -0.93533572542E+02  0.49480466649E+02  0.15786578175E+03  0.22752133728E+03  0.12509000000E+03 0.  0.
<mgrwt>
<rscale>  2 0.44743186E+03</rscale>
<asrwt>0</asrwt>
<pdfrwt beam="1">  1       21 0.75289609E-01 0.44743186E+03</pdfrwt>
<pdfrwt beam="2">  1       21 0.14376095E-01 0.44743186E+03</pdfrwt>
<totfact> 0.61689312E+04</totfact>
</mgrwt>
</event>
<event>
 7    0  0.4709932E-002  0.4618096E+03  0.7546771E-02  0.1024258E+00
         21   -1    0    0  502  501  0.00000000000E+00  0.00000000000E+00  0.79103016758E+02  0.79103016758E+02  0.00000000000E+00 0. -1.
         21   -1    0    0  501  502 -0.00000000000E+00 -0.00000000000E+00 -0.67402008837E+03  0.67402008837E+03  0.00000000000E+00 0. -1.
      99926    2    1    2    0    0  0.00000000000E+00 -0.71054273576E-14 -0.59491707161E+03  0.75312310513E+03  0.46180958130E+03 0.  0.
      99925    2    3    3    0    0  0.52138839929E+02 -0.60219489754E+02 -0.22691588599E+03  0.35636470724E+03  0.26298315474E+03 0.  0.
         25    1    4    4    0    0  0.54929067222E+02 -0.16563318247E+01 -0.11180290077E+03  0.17654275001E+03  0.12509000000E+03 0.  0.
         25    1    3    3    0    0 -0.52138839929E+02  0.60219489754E+02 -0.36800118563E+03  0.39675839789E+03  0.12509000000E+03 0.  0.
         25    1    4    4    0    0 -0.27902272930E+01 -0.58563157929E+02 -0.11511298522E+03  0.17982195723E+03  0.12509000000E+03 0.  0.
<mgrwt>
<rscale>  2 0.46180958E+03</rscale>
<asrwt>0</asrwt>
<pdfrwt beam="1">  1       21 0.11632797E-01 0.46180958E+03</pdfrwt>
<pdfrwt beam="2">  1       21 0.99120595E-01 0.46180958E+03</pdfrwt>
<totfact> 0.47517365E+04</totfact>
</mgrwt>
</event>
<event>
 7    0  0.4709932E-002  0.4471936E+03  0.7546771E-02  0.1028562E+00
         21   -1    0    0  502  501  0.00000000000E+00  0.00000000000E+00  0.32189640102E+03  0.32189640102E+03  0.00000000000E+00 0. -1.
         21   -1    0    0  501  502 -0.00000000000E+00 -0.00000000000E+00 -0.15531559360E+03  0.15531559360E+03  0.00000000000E+00 0. -1.
      99926    2    1    2    0    0  0.00000000000E+00 -0.35527136788E-14  0.16658080743E+03  0.47721199462E+03  0.44719360729E+03 0.  0.
      99925    2    3    3    0    0 -0.67517016264E+02 -0.14892148827E+02  0.19073582645E+03  0.33225925533E+03  0.26312683953E+03 0.  0.
         25    1    4    4    0    0 -0.17321780271E+02  0.29565041033E+02  0.81730180315E+02  0.15330187930E+03  0.12509000000E+03 0.  0.
         25    1    3    3    0    0  0.67517016264E+02  0.14892148827E+02 -0.24155019024E+02  0.14495273928E+03  0.12509000000E+03 0.  0.
         25    1    4    4    0    0 -0.50195235994E+02 -0.44457189860E+02  0.10900564613E+03  0.17895737603E+03  0.12509000000E+03 0.  0.
<mgrwt>
<rscale>  2 0.44719361E+03</rscale>
<asrwt>0</asrwt>
<pdfrwt beam="1">  1       21 0.47337706E-01 0.44719361E+03</pdfrwt>
<pdfrwt beam="2">  1       21 0.22840528E-01 0.44719361E+03</pdfrwt>
<totfact> 0.71215242E+04</totfact>
</mgrwt>
</event>
<event>
 7    0  0.4709932E-002  0.4482946E+03  0.7546771E-02  0.1028232E+00
         21   -1    0    0  502  501  0.00000000000E+00  0.00000000000E+00  0.11855405255E+04  0.11855405255E+04  0.00000000000E+00 0.  1.
         21   -1    0    0  501  502 -0.00000000000E+00 -0.00000000000E+00 -0.42378993126E+02  0.42378993126E+02  0.00000000000E+00 0.  1.
      99926    2    1    2    0    0  0.00000000000E+00  0.00000000000E+00  0.11431615324E+04  0.12279195187E+04  0.44829460752E+03 0.  0.
      99925    2    3    3    0    0 -0.28711342844E+02 -0.69222243585E+02  0.51499575865E+03  0.58305068887E+03  0.26289049840E+03 0.  0.
         25    1    4    4    0    0  0.17502389866E+01  0.13025178670E+01  0.26715175805E+03  0.29499547423E+03  0.12509000000E+03 0.  0.
         25    1    4    4    0    0 -0.30461581830E+02 -0.70524761452E+02  0.24784400061E+03  0.28805521464E+03  0.12509000000E+03 0.  0.
         25    1    3    3    0    0  0.28711342844E+02  0.69222243585E+02  0.62816577375E+03  0.64486882978E+03  0.12509000000E+03 0.  0.
<mgrwt>
<rscale>  2 0.44829461E+03</rscale>
<asrwt>0</asrwt>
<pdfrwt beam="1">  1       21 0.17434417E+00 0.44829461E+03</pdfrwt>
<pdfrwt beam="2">  1       21 0.62322056E-02 0.44829461E+03</pdfrwt>
<totfact> 0.32969967E+04</totfact>
</mgrwt>
</event>
<event>
 7    0  0.4709932E-002  0.4229682E+03  0.7546771E-02  0.1036105E+00
         21   -1    0    0  502  501  0.00000000000E+00  0.00000000000E+00  0.34945610781E+02  0.34945610781E+02  0.00000000000E+00 0. -1.
         21   -1    0    0  501  502 -0.00000000000E+00 -0.00000000000E+00 -0.12798612090E+04  0.12798612090E+04  0.00000000000E+00 0. -1.
      99926    2    1    2    0    0  0.00000000000E+00  0.88817841970E-15 -0.12449155982E+04  0.13148068198E+04  0.42296823363E+03 0.  0.
      99925    2    3    3    0    0  0.46730993570E+02  0.49955712196E+01 -0.10084069993E+04  0.10431589467E+04  0.26284438427E+03 0.  0.
         25    1    4    4    0    0 -0.86625321938E+01  0.25574177188E+02 -0.52228681225E+03  0.53773608802E+03  0.12509000000E+03 0.  0.
         25    1    3    3    0    0 -0.46730993570E+02 -0.49955712196E+01 -0.23650859897E+03  0.27164787313E+03  0.12509000000E+03 0.  0.
         25    1    4    4    0    0  0.55393525764E+02 -0.20578605968E+02 -0.48612018701E+03  0.50542285864E+03  0.12509000000E+03 0.  0.
<mgrwt>
<rscale>  2 0.42296823E+03</rscale>
<asrwt>0</asrwt>
<pdfrwt beam="1">  1       21 0.51390603E-02 0.42296823E+03</pdfrwt>
<pdfrwt beam="2">  1       21 0.18821489E+00 0.42296823E+03</pdfrwt>
<totfact> 0.37104940E+04</totfact>
</mgrwt>
</event>
<event>
 7    0  0.4709932E-002  0.4528641E+03  0.7546771E-02  0.1026871E+00
         21   -1    0    0  502  501  0.00000000000E+00  0.00000000000E+00  0.68237942311E+02  0.68237942311E+02  0.00000000000E+00 0. -1.
         21   -1    0    0  501  502 -0.00000000000E+00 -0.00000000000E+00 -0.75136328130E+03  0.75136328130E+03  0.00000000000E+00 0. -1.
      99926    2    1    2    0    0  0.00000000000E+00  0.00000000000E+00 -0.68312533899E+03  0.81960122361E+03  0.45286414847E+03 0.  0.
      99925    2    3    3    0    0  0.17645637938E+02  0.10043766307E+03 -0.35069548615E+03  0.45006609963E+03  0.26300775145E+03 0.  0.
         25    1    4    4    0    0 -0.22839632749E+02  0.76018919435E+02 -0.19297559897E+03  0.24328504852E+03  0.12509000000E+03 0.  0.
         25    1    3    3    0    0 -0.17645637938E+02 -0.10043766307E+03 -0.33242985283E+03  0.36953512398E+03  0.12509000000E+03 0.  0.
         25    1    4    4    0    0  0.40485270687E+02  0.24418743632E+02 -0.15771988718E+03  0.20678105111E+03  0.12509000000E+03 0.  0.
<mgrwt>
<rscale>  2 0.45286415E+03</rscale>
<asrwt>0</asrwt>
<pdfrwt beam="1">  1       21 0.10034992E-01 0.45286415E+03</pdfrwt>
<pdfrwt beam="2">  1       21 0.11049460E+00 0.45286415E+03</pdfrwt>
<totfact> 0.47624451E+04</totfact>
</mgrwt>
</event>
<event>
 7    0  0.4709932E-002  0.4556743E+03  0.7546771E-02  0.1026043E+00
         21   -1    0    0  502  501  0.00000000000E+00  0.00000000000E+00  0.47814592372E+02  0.47814592372E+02  0.00000000000E+00 0. -1.
         21   -1    0    0  501  502 -0.00000000000E+00 -0.00000000000E+00 -0.10856467772E+04  0.10856467772E+04  0.00000000000E+00 0. -1.
      99926    2    1    2    0    0 -0.14210854715E-13  0.00000000000E+00 -0.10378321848E+04  0.11334613696E+04  0.45567426134E+03 0.  0.
      99925    2    3    3    0    0  0.11117311228E+03  0.17331249819E+02 -0.69509684322E+03  0.75165663466E+03  0.26299855866E+03 0.  0.
         25    1    4    4    0    0  0.27002082992E+02  0.38319714203E+02 -0.30941064086E+03  0.33701626928E+03  0.12509000000E+03 0.  0.
         25    1    3    3    0    0 -0.11117311228E+03 -0.17331249819E+02 -0.34273534160E+03  0.38180473490E+03  0.12509000000E+03 0.  0.
         25    1    4    4    0    0  0.84171029290E+02 -0.20988464384E+02 -0.38568620237E+03  0.41464036538E+03  0.12509000000E+03 0.  0.
<mgrwt>
<rscale>  2 0.45567426E+03</rscale>
<asrwt>0</asrwt>
<pdfrwt beam="1">  1       21 0.70315570E-02 0.45567426E+03</pdfrwt>
<pdfrwt beam="2">  1       21 0.15965395E+00 0.45567426E+03</pdfrwt>
<totfact> 0.34159487E+04</totfact>
</mgrwt>
</event>
<event>
 7    0  0.4709932E-002  0.4577709E+03  0.7546771E-02  0.1025430E+00
         21   -1    0    0  502  501  0.00000000000E+00  0.00000000000E+00  0.44382888282E+03  0.44382888282E+03  0.00000000000E+00 0.  1.
         21   -1    0    0  501  502 -0.00000000000E+00 -0.00000000000E+00 -0.11803772381E+03  0.11803772381E+03  0.00000000000E+00 0.  1.
      99926    2    1    2    0    0  0.35527136788E-14  0.00000000000E+00  0.32579115900E+03  0.56186660663E+03  0.45777090817E+03 0.  0.
      99925    2    3    3    0    0  0.26805840847E+02  0.10667987587E+03  0.16028267251E+03  0.32704813159E+03  0.26300341490E+03 0.  0.
         25    1    4    4    0    0 -0.37135313990E+01  0.36885121811E+02  0.37009498217E+02  0.13561531471E+03  0.12509000000E+03 0.  0.
         25    1    4    4    0    0  0.30519372246E+02  0.69794754064E+02  0.12327317429E+03  0.19143281688E+03  0.12509000000E+03 0.  0.
         25    1    3    3    0    0 -0.26805840847E+02 -0.10667987587E+03  0.16550848649E+03  0.23481847504E+03  0.12509000000E+03 0.  0.
<mgrwt>
<rscale>  2 0.45777091E+03</rscale>
<asrwt>0</asrwt>
<pdfrwt beam="1">  1       21 0.65268953E-01 0.45777091E+03</pdfrwt>
<pdfrwt beam="2">  1       21 0.17358489E-01 0.45777091E+03</pdfrwt>
<totfact> 0.59768369E+04</totfact>
</mgrwt>
</event>
<event>
 7    0  0.4709932E-002  0.4621807E+03  0.7546771E-02  0.1024151E+00
         21   -1    0    0  502  501  0.00000000000E+00  0.00000000000E+00  0.69899185553E+02  0.69899185553E+02  0.00000000000E+00 0.  1.
         21   -1    0    0  501  502 -0.00000000000E+00 -0.00000000000E+00 -0.76399673571E+03  0.76399673571E+03  0.00000000000E+00 0.  1.
      99926    2    1    2    0    0  0.00000000000E+00  0.14210854715E-13 -0.69409755016E+03  0.83389592126E+03  0.46218069882E+03 0.  0.
      99925    2    3    3    0    0 -0.16437327869E+02  0.97845078084E+02 -0.55567650247E+03  0.62258633891E+03  0.26266619300E+03 0.  0.
         25    1    3    3    0    0  0.16437327869E+02 -0.97845078084E+02 -0.13842104769E+03  0.21130958236E+03  0.12509000000E+03 0.  0.
         25    1    4    4    0    0 -0.24486787627E+02  0.87923615880E+02 -0.31806600557E+03  0.35375649392E+03  0.12509000000E+03 0.  0.
         25    1    4    4    0    0  0.80494597579E+01  0.99214622035E+01 -0.23761049690E+03  0.26882984498E+03  0.12509000000E+03 0.  0.
<mgrwt>
<rscale>  2 0.46218070E+03</rscale>
<asrwt>0</asrwt>
<pdfrwt beam="1">  1       21 0.10279292E-01 0.46218070E+03</pdfrwt>
<pdfrwt beam="2">  1       21 0.11235246E+00 0.46218070E+03</pdfrwt>
<totfact> 0.43656560E+04</totfact>
</mgrwt>
</event>
<event>
 7    0  0.4709932E-002  0.4470785E+03  0.7546771E-02  0.1028597E+00
         21   -1    0    0  502  501  0.00000000000E+00  0.00000000000E+00  0.11119151928E+04  0.11119151928E+04  0.00000000000E+00 0. -1.
         21   -1    0    0  501  502 -0.00000000000E+00 -0.00000000000E+00 -0.44940301872E+02  0.44940301872E+02  0.00000000000E+00 0. -1.
      99926    2    1    2    0    0 -0.71054273576E-14  0.14210854715E-13  0.10669748909E+04  0.11568554947E+04  0.44707853637E+03 0.  0.
      99925    2    3    3    0    0 -0.44799169873E+02  0.91224284121E+02  0.60315036000E+03  0.66582643319E+03  0.26306966135E+03 0.  0.
         25    1    4    4    0    0 -0.34389685614E+02  0.36096152898E+02  0.21006857890E+03  0.24952334294E+03  0.12509000000E+03 0.  0.
         25    1    3    3    0    0  0.44799169873E+02 -0.91224284121E+02  0.46382453091E+03  0.49102906147E+03  0.12509000000E+03 0.  0.
         25    1    4    4    0    0 -0.10409484259E+02  0.55128131222E+02  0.39308178110E+03  0.41630309025E+03  0.12509000000E+03 0.  0.
<mgrwt>
<rscale>  2 0.44707854E+03</rscale>
<asrwt>0</asrwt>
<pdfrwt beam="1">  1       21 0.16351692E+00 0.44707854E+03</pdfrwt>
<pdfrwt beam="2">  1       21 0.66088686E-02 0.44707854E+03</pdfrwt>
<totfact> 0.35708272E+04</totfact>
</mgrwt>
</event>
<event>
 7    0  0.4709932E-002  0.4531793E+03  0.7546771E-02  0.1026778E+00
         21   -1    0    0  502  501  0.00000000000E+00  0.00000000000E+00  0.22816369937E+02  0.22816369937E+02  0.00000000000E+00 0.  1.
         21   -1    0    0  501  502 -0.00000000000E+00 -0.00000000000E+00 -0.22502641703E+04  0.22502641703E+04  0.00000000000E+00 0.  1.
      99926    2    1    2    0    0  0.00000000000E+00  0.00000000000E+00 -0.22274478004E+04  0.22730805402E+04  0.45317925709E+03 0.  0.
      99925    2    3    3    0    0 -0.20558267130E+02 -0.95141715572E+02 -0.16769697582E+04  0.17002383530E+04  0.26288457346E+03 0.  0.
         25    1    3    3    0    0  0.20558267130E+02  0.95141715572E+02 -0.55047804222E+03  0.57284218721E+03  0.12509000000E+03 0.  0.
         25    1    4    4    0    0 -0.29303246038E+02 -0.26970093759E+02 -0.62563622297E+03  0.63926071190E+03  0.12509000000E+03 0.  0.
         25    1    4    4    0    0  0.87449789081E+01 -0.68171621813E+02 -0.10513335352E+04  0.10609776411E+04  0.12509000000E+03 0.  0.
<mgrwt>
<rscale>  2 0.45317926E+03</rscale>
<asrwt>0</asrwt>
<pdfrwt beam="1">  1       21 0.33553478E-02 0.45317926E+03</pdfrwt>
<pdfrwt beam="2">  1       21 0.33092127E+00 0.45317926E+03</pdfrwt>
<totfact> 0.98805893E+03</totfact>
</mgrwt>
</event>
<event>
 7    0  0.4709932E-002  0.4504513E+03  0.7546771E-02  0.1027588E+00
         21   -1    0    0  502  501  0.00000000000E+00  0.00000000000E+00  0.88181898658E+02  0.88181898658E+02  0.00000000000E+00 0.  1.
         21   -1    0    0  501  502 -0.00000000000E+00 -0.00000000000E+00 -0.57524956700E+03  0.57524956700E+03  0.00000000000E+00 0.  1.
      99926    2    1    2    0    0  0.00000000000E+00  0.71054273576E-14 -0.48706766834E+03  0.66343146566E+03  0.45045132487E+03 0.  0.
      99925    2    3    3    0    0 -0.25695816631E+02  0.48750835041E+02 -0.44624541366E+03  0.52077494289E+03  0.26274446336E+03 0.  0.
         25    1    4    4    0    0 -0.42281729701E+02  0.52766640966E+02 -0.23932463265E+03  0.27838076614E+03  0.12509000000E+03 0.  0.
         25    1    4    4    0    0  0.16585913070E+02 -0.40158059249E+01 -0.20692078101E+03  0.24239417675E+03  0.12509000000E+03 0.  0.
         25    1    3    3    0    0  0.25695816631E+02 -0.48750835041E+02 -0.40822254684E+02  0.14265652276E+03  0.12509000000E+03 0.  0.
<mgrwt>
<rscale>  2 0.45045132E+03</rscale>
<asrwt>0</asrwt>
<pdfrwt beam="1">  1       21 0.12967926E-01 0.45045132E+03</pdfrwt>
<pdfrwt beam="2">  1       21 0.84595528E-01 0.45045132E+03</pdfrwt>
<totfact> 0.56948518E+04</totfact>
</mgrwt>
</event>
<event>
 7    0  0.4709932E-002  0.4328278E+03  0.7546771E-02  0.1032970E+00
         21   -1    0    0  502  501  0.00000000000E+00  0.00000000000E+00  0.55125522814E+02  0.55125522814E+02  0.00000000000E+00 0. -1.
         21   -1    0    0  501  502 -0.00000000000E+00 -0.00000000000E+00 -0.84960587649E+03  0.84960587649E+03  0.00000000000E+00 0. -1.
      99926    2    1    2    0    0 -0.35527136788E-14 -0.71054273576E-14 -0.79448035368E+03  0.90473139931E+03  0.43282776310E+03 0.  0.
      99925    2    3    3    0    0 -0.18846285692E+02 -0.47818626235E+02 -0.35405418358E+03  0.44400965801E+03  0.26296084878E+03 0.  0.
         25    1    3    3    0    0  0.18846285692E+02  0.47818626235E+02 -0.44042617010E+03  0.46072174130E+03  0.12509000000E+03 0.  0.
         25    1    4    4    0    0 -0.15587976602E+02 -0.12873600632E+02 -0.11119946195E+03  0.16858690058E+03  0.12509000000E+03 0.  0.
         25    1    4    4    0    0 -0.32583090896E+01 -0.34945025603E+02 -0.24285472163E+03  0.27542275743E+03  0.12509000000E+03 0.  0.
<mgrwt>
<rscale>  2 0.43282776E+03</rscale>
<asrwt>0</asrwt>
<pdfrwt beam="1">  1       21 0.81066951E-02 0.43282776E+03</pdfrwt>
<pdfrwt beam="2">  1       21 0.12494203E+00 0.43282776E+03</pdfrwt>
<totfact> 0.51380905E+04</totfact>
</mgrwt>
</event>
<event>
 7    0  0.4709932E-002  0.4551597E+03  0.7546771E-02  0.1026194E+00
         21   -1    0    0  502  501  0.00000000000E+00  0.00000000000E+00  0.30759180453E+02  0.30759180453E+02  0.00000000000E+00 0. -1.
         21   -1    0    0  501  502 -0.00000000000E+00 -0.00000000000E+00 -0.16838092489E+04  0.16838092489E+04  0.00000000000E+00 0. -1.
      99926    2    1    2    0    0  0.14210854715E-13  0.00000000000E+00 -0.16530500684E+04  0.17145684293E+04  0.45515971938E+03 0.  0.
      99925    2    3    3    0    0 -0.10167462483E+03 -0.13640956649E+02 -0.85939577682E+03  0.90459407929E+03  0.26306946241E+03 0.  0.
         25    1    4    4    0    0 -0.86130665252E+02 -0.13061308030E+02 -0.54364238028E+03  0.56460927641E+03  0.12509000000E+03 0.  0.
         25    1    3    3    0    0  0.10167462483E+03  0.13640956649E+02 -0.79365429162E+03  0.80997435005E+03  0.12509000000E+03 0.  0.
         25    1    4    4    0    0 -0.15543959574E+02 -0.57964861957E+00 -0.31575339653E+03  0.33998480289E+03  0.12509000000E+03 0.  0.
<mgrwt>
<rscale>  2 0.45515972E+03</rscale>
<asrwt>0</asrwt>
<pdfrwt beam="1">  1       21 0.45234099E-02 0.45515972E+03</pdfrwt>
<pdfrwt beam="2">  1       21 0.24761895E+00 0.45515972E+03</pdfrwt>
<totfact> 0.18936728E+04</totfact>
</mgrwt>
</event>
<event>
 7    0  0.4709932E-002  0.4612502E+03  0.7546771E-02  0.1024419E+00
         21   -1    0    0  502  501  0.00000000000E+00  0.00000000000E+00  0.50509249559E+03  0.50509249559E+03  0.00000000000E+00 0.  1.
         21   -1    0    0  501  502 -0.00000000000E+00 -0.00000000000E+00 -0.10530335616E+03  0.10530335616E+03  0.00000000000E+00 0.  1.
      99926    2    1    2    0    0  0.00000000000E+00  0.00000000000E+00  0.39978913943E+03  0.61039585176E+03  0.46125019224E+03 0.  0.
      99925    2    3    3    0    0 -0.42733550888E+02 -0.78638985125E+02  0.14638232116E+03  0.31396243597E+03  0.26293417598E+03 0.  0.
         25    1    4    4    0    0  0.13195860693E+02 -0.17842674595E+02  0.55318546505E+02  0.13856457507E+03  0.12509000000E+03 0.  0.
         25    1    3    3    0    0  0.42733550888E+02  0.78638985125E+02  0.25340681826E+03  0.29643341579E+03  0.12509000000E+03 0.  0.
         25    1    4    4    0    0 -0.55929411580E+02 -0.60796310529E+02  0.91063774659E+02  0.17539786090E+03  0.12509000000E+03 0.  0.
<mgrwt>
<rscale>  2 0.46125019E+03</rscale>
<asrwt>0</asrwt>
<pdfrwt beam="1">  1       21 0.74278307E-01 0.46125019E+03</pdfrwt>
<pdfrwt beam="2">  1       21 0.15485788E-01 0.46125019E+03</pdfrwt>
<totfact> 0.55263526E+04</totfact>
</mgrwt>
</event>
<event>
 7    0  0.4709932E-002  0.4581407E+03  0.7546771E-02  0.1025322E+00
         21   -1    0    0  502  501  0.00000000000E+00  0.00000000000E+00  0.14127425640E+03  0.14127425640E+03  0.00000000000E+00 0.  1.
         21   -1    0    0  501  502 -0.00000000000E+00 -0.00000000000E+00 -0.37142812100E+03  0.37142812100E+03  0.00000000000E+00 0.  1.
      99926    2    1    2    0    0  0.00000000000E+00  0.00000000000E+00 -0.23015386460E+03  0.51270237739E+03  0.45814072772E+03 0.  0.
      99925    2    3    3    0    0 -0.66158764095E+02 -0.96104556217E+02 -0.13655903622E+03  0.31771374236E+03  0.26206980734E+03 0.  0.
         25    1    3    3    0    0  0.66158764095E+02  0.96104556217E+02 -0.93594828384E+02  0.19498863503E+03  0.12509000000E+03 0.  0.
         25    1    4    4    0    0 -0.17664274297E+02 -0.52589998995E+02 -0.27864316117E+02  0.13964835407E+03  0.12509000000E+03 0.  0.
         25    1    4    4    0    0 -0.48494489798E+02 -0.43514557222E+02 -0.10869472010E+03  0.17806538829E+03  0.12509000000E+03 0.  0.
<mgrwt>
<rscale>  2 0.45814073E+03</rscale>
<asrwt>0</asrwt>
<pdfrwt beam="1">  1       21 0.20775626E-01 0.45814073E+03</pdfrwt>
<pdfrwt beam="2">  1       21 0.54621782E-01 0.45814073E+03</pdfrwt>
<totfact> 0.62807049E+04</totfact>
</mgrwt>
</event>
<event>
 7    0  0.4709932E-002  0.4735174E+03  0.7546771E-02  0.1020932E+00
         21   -1    0    0  502  501  0.00000000000E+00  0.00000000000E+00  0.47625517721E+03  0.47625517721E+03  0.00000000000E+00 0. -1.
         21   -1    0    0  501  502 -0.00000000000E+00 -0.00000000000E+00 -0.11769884438E+03  0.11769884438E+03  0.00000000000E+00 0. -1.
      99926    2    1    2    0    0  0.00000000000E+00  0.14210854715E-13  0.35855633283E+03  0.59395402160E+03  0.47351740829E+03 0.  0.
      99925    2    3    3    0    0 -0.47244525519E+02 -0.12061735388E+03  0.21124883927E+03  0.36130063777E+03  0.26292867381E+03 0.  0.
         25    1    4    4    0    0  0.23625049808E+01 -0.91810918499E+02  0.10370127932E+03  0.18664482211E+03  0.12509000000E+03 0.  0.
         25    1    4    4    0    0 -0.49607030500E+02 -0.28806435376E+02  0.10754755994E+03  0.17465581566E+03  0.12509000000E+03 0.  0.
         25    1    3    3    0    0  0.47244525519E+02  0.12061735388E+03  0.14730749356E+03  0.23265338383E+03  0.12509000000E+03 0.  0.
<mgrwt>
<rscale>  2 0.47351741E+03</rscale>
<asrwt>0</asrwt>
<pdfrwt beam="1">  1       21 0.70037525E-01 0.47351741E+03</pdfrwt>
<pdfrwt beam="2">  1       21 0.17308654E-01 0.47351741E+03</pdfrwt>
<totfact> 0.51145681E+04</totfact>
</mgrwt>
</event>
<event>
 7    0  0.4709932E-002  0.4631829E+03  0.7546771E-02  0.1023862E+00
         21   -1    0    0  502  501  0.00000000000E+00  0.00000000000E+00  0.14376063407E+03  0.14376063407E+03  0.00000000000E+00 0. -1.
         21   -1    0    0  501  502 -0.00000000000E+00 -0.00000000000E+00 -0.37308262008E+03  0.37308262008E+03  0.00000000000E+00 0. -1.
      99926    2    1    2    0    0  0.00000000000E+00  0.00000000000E+00 -0.22932198601E+03  0.51684325414E+03  0.46318287543E+03 0.  0.
      99925    2    3    3    0    0 -0.22609735011E+02  0.89643474470E+02 -0.56835130932E+02  0.28457966271E+03  0.26307451356E+03 0.  0.
         25    1    3    3    0    0  0.22609735011E+02 -0.89643474470E+02 -0.17248685508E+03  0.23226359144E+03  0.12509000000E+03 0.  0.
         25    1    4    4    0    0  0.14800386641E+02  0.75405010395E+02 -0.19926039185E+02  0.14815371131E+03  0.12509000000E+03 0.  0.
         25    1    4    4    0    0 -0.37410121652E+02  0.14238464075E+02 -0.36909091747E+02  0.13642595140E+03  0.12509000000E+03 0.  0.
<mgrwt>
<rscale>  2 0.46318288E+03</rscale>
<asrwt>0</asrwt>
<pdfrwt beam="1">  1       21 0.21141270E-01 0.46318288E+03</pdfrwt>
<pdfrwt beam="2">  1       21 0.54865090E-01 0.46318288E+03</pdfrwt>
<totfact> 0.60103988E+04</totfact>
</mgrwt>
</event>
<event>
 7    0  0.4709932E-002  0.4560025E+03  0.7546771E-02  0.1025947E+00
         21   -1    0    0  502  501  0.00000000000E+00  0.00000000000E+00  0.14700679257E+03  0.14700679257E+03  0.00000000000E+00 0.  1.
         21   -1    0    0  501  502 -0.00000000000E+00 -0.00000000000E+00 -0.35362017030E+03  0.35362017030E+03  0.00000000000E+00 0.  1.
      99926    2    1    2    0    0  0.00000000000E+00  0.00000000000E+00 -0.20661337773E+03  0.50062696288E+03  0.45600248694E+03 0.  0.
      99925    2    3    3    0    0  0.10581942474E+03  0.25126431115E+02 -0.16882715164E+03  0.33061403638E+03  0.26262891259E+03 0.  0.
         25    1    4    4    0    0  0.52021038951E+02  0.13403404522E+02 -0.37817555110E+02  0.14129230454E+03  0.12509000000E+03 0.  0.
         25    1    4    4    0    0  0.53798385787E+02  0.11723026592E+02 -0.13100959653E+03  0.18932173185E+03  0.12509000000E+03 0.  0.
         25    1    3    3    0    0 -0.10581942474E+03 -0.25126431115E+02 -0.37786226089E+02  0.17001292649E+03  0.12509000000E+03 0.  0.
<mgrwt>
<rscale>  2 0.45600249E+03</rscale>
<asrwt>0</asrwt>
<pdfrwt beam="1">  1       21 0.21618646E-01 0.45600249E+03</pdfrwt>
<pdfrwt beam="2">  1       21 0.52002966E-01 0.45600249E+03</pdfrwt>
<totfact> 0.64710153E+04</totfact>
</mgrwt>
</event>
<event>
 7    0  0.4709932E-002  0.4563201E+03  0.7546771E-02  0.1025854E+00
         21   -1    0    0  502  501  0.00000000000E+00  0.00000000000E+00  0.23383008978E+03  0.23383008978E+03  0.00000000000E+00 0.  1.
         21   -1    0    0  501  502 -0.00000000000E+00 -0.00000000000E+00 -0.22262751521E+03  0.22262751521E+03  0.00000000000E+00 0.  1.
      99926    2    1    2    0    0  0.00000000000E+00  0.00000000000E+00  0.11202574572E+02  0.45645760500E+03  0.45632011514E+03 0.  0.
      99925    2    3    3    0    0  0.60690557093E+02  0.97076060979E+02  0.25617991191E+01  0.28666574289E+03  0.26279950532E+03 0.  0.
         25    1    3    3    0    0 -0.60690557093E+02 -0.97076060979E+02  0.86407754524E+01  0.16979186210E+03  0.12509000000E+03 0.  0.
         25    1    4    4    0    0  0.25048836916E+01  0.20930896646E+02  0.18851661748E+02  0.12824691079E+03  0.12509000000E+03 0.  0.
         25    1    4    4    0    0  0.58185673402E+02  0.76145164333E+02 -0.16289862629E+02  0.15841883210E+03  0.12509000000E+03 0.  0.
<mgrwt>
<rscale>  2 0.45632012E+03</rscale>
<asrwt>0</asrwt>
<pdfrwt beam="1">  1       21 0.34386778E-01 0.45632012E+03</pdfrwt>
<pdfrwt beam="2">  1       21 0.32739340E-01 0.45632012E+03</pdfrwt>
<totfact> 0.67722997E+04</totfact>
</mgrwt>
</event>
<event>
 7    0  0.4709932E-002  0.4454301E+03  0.7546771E-02  0.1029094E+00
         21   -1    0    0  502  501  0.00000000000E+00  0.00000000000E+00  0.52156463804E+03  0.52156463804E+03  0.00000000000E+00 0.  1.
         21   -1    0    0  501  502 -0.00000000000E+00 -0.00000000000E+00 -0.95102306963E+02  0.95102306963E+02  0.00000000000E+00 0.  1.
      99926    2    1    2    0    0  0.00000000000E+00  0.00000000000E+00  0.42646233107E+03  0.61666694500E+03  0.44543013058E+03 0.  0.
      99925    2    3    3    0    0  0.90392781743E+02 -0.34493319675E+02  0.21784395332E+03  0.35488501336E+03  0.26291964670E+03 0.  0.
         25    1    3    3    0    0 -0.90392781743E+02  0.34493319675E+02  0.20861837775E+03  0.26178193163E+03  0.12509000000E+03 0.  0.
         25    1    4    4    0    0  0.77915173977E+02  0.50301717407E+01  0.10064074845E+03  0.17852771581E+03  0.12509000000E+03 0.  0.
         25    1    4    4    0    0  0.12477607766E+02 -0.39523491416E+02  0.11720320487E+03  0.17635729756E+03  0.12509000000E+03 0.  0.
<mgrwt>
<rscale>  2 0.44543013E+03</rscale>
<asrwt>0</asrwt>
<pdfrwt beam="1">  1       21 0.76700681E-01 0.44543013E+03</pdfrwt>
<pdfrwt beam="2">  1       21 0.13985634E-01 0.44543013E+03</pdfrwt>
<totfact> 0.62235516E+04</totfact>
</mgrwt>
</event>
<event>
 7    0  0.4709932E-002  0.4688624E+03  0.7546771E-02  0.1022242E+00
         21   -1    0    0  502  501  0.00000000000E+00  0.00000000000E+00  0.27313806232E+04  0.27313806232E+04  0.00000000000E+00 0. -1.
         21   -1    0    0  501  502 -0.00000000000E+00 -0.00000000000E+00 -0.20120953074E+02  0.20120953074E+02  0.00000000000E+00 0. -1.
      99926    2    1    2    0    0  0.00000000000E+00  0.00000000000E+00  0.27112596702E+04  0.27515015763E+04  0.46886237361E+03 0.  0.
      99925    2    3    3    0    0  0.49160012934E+02  0.36596600493E+02  0.10393777736E+04  0.10738268157E+04  0.26275817009E+03 0.  0.
         25    1    4    4    0    0  0.33976346903E+02 -0.13537514543E+02  0.41907340028E+03  0.43887091425E+03  0.12509000000E+03 0.  0.
         25    1    3    3    0    0 -0.49160012934E+02 -0.36596600493E+02  0.16718818966E+04  0.16776747606E+04  0.12509000000E+03 0.  0.
         25    1    4    4    0    0  0.15183666031E+02  0.50134115036E+02  0.62030437329E+03  0.63495590148E+03  0.12509000000E+03 0.  0.
<mgrwt>
<rscale>  2 0.46886237E+03</rscale>
<asrwt>0</asrwt>
<pdfrwt beam="1">  1       21 0.40167337E+00 0.46886237E+03</pdfrwt>
<pdfrwt beam="2">  1       21 0.29589656E-02 0.46886237E+03</pdfrwt>
<totfact> 0.43928505E+03</totfact>
</mgrwt>
</event>
<event>
 7    0  0.4709932E-002  0.4576546E+03  0.7546771E-02  0.1025464E+00
         21   -1    0    0  502  501  0.00000000000E+00  0.00000000000E+00  0.83644010508E+02  0.83644010508E+02  0.00000000000E+00 0. -1.
         21   -1    0    0  501  502 -0.00000000000E+00 -0.00000000000E+00 -0.62600927678E+03  0.62600927678E+03  0.00000000000E+00 0. -1.
      99926    2    1    2    0    0  0.00000000000E+00  0.00000000000E+00 -0.54236526627E+03  0.70965328729E+03  0.45765457072E+03 0.  0.
      99925    2    3    3    0    0 -0.57624025354E+02 -0.81877431150E+02 -0.43007220582E+03  0.51399623641E+03  0.26306954746E+03 0.  0.
         25    1    4    4    0    0 -0.51437010370E+01 -0.74004869235E+02 -0.23110745658E+03  0.27305922969E+03  0.12509000000E+03 0.  0.
         25    1    4    4    0    0 -0.52480324317E+02 -0.78725619154E+01 -0.19896474923E+03  0.24093700672E+03  0.12509000000E+03 0.  0.
         25    1    3    3    0    0  0.57624025354E+02  0.81877431150E+02 -0.11229306046E+03  0.19565705087E+03  0.12509000000E+03 0.  0.
<mgrwt>
<rscale>  2 0.45765457E+03</rscale>
<asrwt>0</asrwt>
<pdfrwt beam="1">  1       21 0.12300589E-01 0.45765457E+03</pdfrwt>
<pdfrwt beam="2">  1       21 0.92060193E-01 0.45765457E+03</pdfrwt>
<totfact> 0.51302084E+04</totfact>
</mgrwt>
</event>
<event>
 7    0  0.4709932E-002  0.4564051E+03  0.7546771E-02  0.1025829E+00
         21   -1    0    0  502  501  0.00000000000E+00  0.00000000000E+00  0.28681766091E+03  0.28681766091E+03  0.00000000000E+00 0. -1.
         21   -1    0    0  501  502 -0.00000000000E+00 -0.00000000000E+00 -0.18156621131E+03  0.18156621131E+03  0.00000000000E+00 0. -1.
      99926    2    1    2    0    0  0.00000000000E+00  0.00000000000E+00  0.10525144960E+03  0.46838387222E+03  0.45640506583E+03 0.  0.
      99925    2    3    3    0    0 -0.58005988923E+02  0.52504888496E+02 -0.19578906554E+02  0.27511829333E+03  0.26303095573E+03 0.  0.
         25    1    3    3    0    0  0.58005988923E+02 -0.52504888496E+02  0.12483035616E+03  0.19326557889E+03  0.12509000000E+03 0.  0.
         25    1    4    4    0    0 -0.59957687576E+02  0.41106886253E+02 -0.34142116980E+02  0.14865359951E+03  0.12509000000E+03 0.  0.
         25    1    4    4    0    0  0.19516986526E+01  0.11398002242E+02  0.14563210426E+02  0.12646469381E+03  0.12509000000E+03 0.  0.
<mgrwt>
<rscale>  2 0.45640507E+03</rscale>
<asrwt>0</asrwt>
<pdfrwt beam="1">  1       21 0.42179068E-01 0.45640507E+03</pdfrwt>
<pdfrwt beam="2">  1       21 0.26700913E-01 0.45640507E+03</pdfrwt>
<totfact> 0.66808619E+04</totfact>
</mgrwt>
</event>
<event>
 7    0  0.4709932E-002  0.4544278E+03  0.7546771E-02  0.1026410E+00
         21   -1    0    0  502  501  0.00000000000E+00  0.00000000000E+00  0.15419339718E+03  0.15419339718E+03  0.00000000000E+00 0. -1.
         21   -1    0    0  501  502 -0.00000000000E+00 -0.00000000000E+00 -0.33481432638E+03  0.33481432638E+03  0.00000000000E+00 0. -1.
      99926    2    1    2    0    0  0.00000000000E+00  0.00000000000E+00 -0.18062092920E+03  0.48900772355E+03  0.45442780904E+03 0.  0.
      99925    2    3    3    0    0 -0.81744657528E+02 -0.67203494704E+02 -0.15528792608E+03  0.32321336936E+03  0.26297156389E+03 0.  0.
         25    1    4    4    0    0 -0.18013227516E+02 -0.50525320361E+02 -0.43209251152E+02  0.14279997146E+03  0.12509000000E+03 0.  0.
         25    1    3    3    0    0  0.81744657528E+02  0.67203494704E+02 -0.25333003121E+02  0.16579435419E+03  0.12509000000E+03 0.  0.
         25    1    4    4    0    0 -0.63731430012E+02 -0.16678174343E+02 -0.11207867492E+03  0.18041339790E+03  0.12509000000E+03 0.  0.
<mgrwt>
<rscale>  2 0.45442781E+03</rscale>
<asrwt>0</asrwt>
<pdfrwt beam="1">  1       21 0.22675500E-01 0.45442781E+03</pdfrwt>
<pdfrwt beam="2">  1       21 0.49237401E-01 0.45442781E+03</pdfrwt>
<totfact> 0.66350901E+04</totfact>
</mgrwt>
</event>
<event>
 7    0  0.4709932E-002  0.4544606E+03  0.7546771E-02  0.1026400E+00
         21   -1    0    0  502  501  0.00000000000E+00  0.00000000000E+00  0.10377893658E+03  0.10377893658E+03  0.00000000000E+00 0. -1.
         21   -1    0    0  501  502 -0.00000000000E+00 -0.00000000000E+00 -0.49753456219E+03  0.49753456219E+03  0.00000000000E+00 0. -1.
      99926    2    1    2    0    0 -0.14210854715E-13  0.00000000000E+00 -0.39375562562E+03  0.60131349877E+03  0.45446059356E+03 0.  0.
      99925    2    3    3    0    0  0.82444654374E+02  0.76386825489E+02 -0.23837317965E+03  0.37235219034E+03  0.26304431705E+03 0.  0.
         25    1    3    3    0    0 -0.82444654374E+02 -0.76386825489E+02 -0.15538244597E+03  0.22896130843E+03  0.12509000000E+03 0.  0.
         25    1    4    4    0    0  0.73513378749E+02  0.13548452818E+02 -0.12511972113E+03  0.19206829552E+03  0.12509000000E+03 0.  0.
         25    1    4    4    0    0  0.89312756254E+01  0.62838372671E+02 -0.11325345852E+03  0.18028389482E+03  0.12509000000E+03 0.  0.
<mgrwt>
<rscale>  2 0.45446059E+03</rscale>
<asrwt>0</asrwt>
<pdfrwt beam="1">  1       21 0.15261609E-01 0.45446059E+03</pdfrwt>
<pdfrwt beam="2">  1       21 0.73166846E-01 0.45446059E+03</pdfrwt>
<totfact> 0.58847890E+04</totfact>
</mgrwt>
</event>
<event>
 7    0  0.4709932E-002  0.4360773E+03  0.7546771E-02  0.1031957E+00
         21   -1    0    0  502  501  0.00000000000E+00  0.00000000000E+00  0.13910365805E+03  0.13910365805E+03  0.00000000000E+00 0.  1.
         21   -1    0    0  501  502 -0.00000000000E+00 -0.00000000000E+00 -0.34176564738E+03  0.34176564738E+03  0.00000000000E+00 0.  1.
      99926    2    1    2    0    0  0.00000000000E+00  0.00000000000E+00 -0.20266198934E+03  0.48086930543E+03  0.43607729473E+03 0.  0.
      99925    2    3    3    0    0  0.17418226030E+02  0.83583848823E+02 -0.85397353334E+02  0.28932777641E+03  0.26292242176E+03 0.  0.
         25    1    3    3    0    0 -0.17418226030E+02 -0.83583848823E+02 -0.11726463600E+03  0.19154152902E+03  0.12509000000E+03 0.  0.
         25    1    4    4    0    0  0.40821507262E+02  0.62305554256E+02 -0.61794848495E+02  0.15815969444E+03  0.12509000000E+03 0.  0.
         25    1    4    4    0    0 -0.23403281232E+02  0.21278294567E+02 -0.23602504840E+02  0.13116808197E+03  0.12509000000E+03 0.  0.
<mgrwt>
<rscale>  2 0.43607729E+03</rscale>
<asrwt>0</asrwt>
<pdfrwt beam="1">  1       21 0.20456420E-01 0.43607729E+03</pdfrwt>
<pdfrwt beam="2">  1       21 0.50259654E-01 0.43607729E+03</pdfrwt>
<totfact> 0.77663962E+04</totfact>
</mgrwt>
</event>
<event>
 7    0  0.4709932E-002  0.4575941E+03  0.7546771E-02  0.1025481E+00
         21   -1    0    0  502  501  0.00000000000E+00  0.00000000000E+00  0.66455678899E+03  0.66455678899E+03  0.00000000000E+00 0.  1.
         21   -1    0    0  501  502 -0.00000000000E+00 -0.00000000000E+00 -0.78771448601E+02  0.78771448601E+02  0.00000000000E+00 0.  1.
      99926    2    1    2    0    0  0.00000000000E+00  0.00000000000E+00  0.58578534039E+03  0.74332823759E+03  0.45759414746E+03 0.  0.
      99925    2    3    3    0    0  0.82141146074E+02 -0.42059494748E+02  0.25506059077E+03  0.37789351416E+03  0.26311866924E+03 0.  0.
         25    1    4    4    0    0  0.38958537100E+02 -0.62025673105E+02  0.13598051212E+03  0.19875401760E+03  0.12509000000E+03 0.  0.
         25    1    3    3    0    0 -0.82141146074E+02  0.42059494748E+02  0.33072474962E+03  0.36543472343E+03  0.12509000000E+03 0.  0.
         25    1    4    4    0    0  0.43182608974E+02  0.19966178358E+02  0.11908007865E+03  0.17913949656E+03  0.12509000000E+03 0.  0.
<mgrwt>
<rscale>  2 0.45759415E+03</rscale>
<asrwt>0</asrwt>
<pdfrwt beam="1">  1       21 0.97728936E-01 0.45759415E+03</pdfrwt>
<pdfrwt beam="2">  1       21 0.11584037E-01 0.45759415E+03</pdfrwt>
<totfact> 0.49593750E+04</totfact>
</mgrwt>
</event>
<event>
 7    0  0.4709932E-002  0.4683057E+03  0.7546771E-02  0.1022400E+00
         21   -1    0    0  502  501  0.00000000000E+00  0.00000000000E+00  0.34644691174E+03  0.34644691174E+03  0.00000000000E+00 0.  1.
         21   -1    0    0  501  502 -0.00000000000E+00 -0.00000000000E+00 -0.15825673141E+03  0.15825673141E+03  0.00000000000E+00 0.  1.
      99926    2    1    2    0    0  0.00000000000E+00  0.00000000000E+00  0.18819018033E+03  0.50470364315E+03  0.46830569443E+03 0.  0.
      99925    2    3    3    0    0  0.67513460574E+02  0.10530722467E+03  0.12397449501E+03  0.31650470249E+03  0.26297884393E+03 0.  0.
         25    1    4    4    0    0  0.73753430402E+02  0.66398251546E+02  0.59905232855E+02  0.17054161172E+03  0.12509000000E+03 0.  0.
         25    1    4    4    0    0 -0.62399698279E+01  0.38908973126E+02  0.64069262156E+02  0.14596309077E+03  0.12509000000E+03 0.  0.
         25    1    3    3    0    0 -0.67513460574E+02 -0.10530722467E+03  0.64215685320E+02  0.18819894067E+03  0.12509000000E+03 0.  0.
<mgrwt>
<rscale>  2 0.46830569E+03</rscale>
<asrwt>0</asrwt>
<pdfrwt beam="1">  1       21 0.50948075E-01 0.46830569E+03</pdfrwt>
<pdfrwt beam="2">  1       21 0.23273049E-01 0.46830569E+03</pdfrwt>
<totfact> 0.58512555E+04</totfact>
</mgrwt>
</event>
<event>
 7    0  0.4709932E-002  0.4534980E+03  0.7546771E-02  0.1026684E+00
         21   -1    0    0  502  501  0.00000000000E+00  0.00000000000E+00  0.95725221676E+02  0.95725221676E+02  0.00000000000E+00 0. -1.
         21   -1    0    0  501  502 -0.00000000000E+00 -0.00000000000E+00 -0.53711133386E+03  0.53711133386E+03  0.00000000000E+00 0. -1.
      99926    2    1    2    0    0  0.00000000000E+00 -0.35527136788E-14 -0.44138611218E+03  0.63283655553E+03  0.45349796691E+03 0.  0.
      99925    2    3    3    0    0  0.10762162940E+03  0.20362960560E+02 -0.24815707957E+03  0.37792081961E+03  0.26314472154E+03 0.  0.
         25    1    3    3    0    0 -0.10762162940E+03 -0.20362960560E+02 -0.19322903261E+03  0.25491573592E+03  0.12509000000E+03 0.  0.
         25    1    4    4    0    0  0.32573433060E+02  0.14063917356E+02 -0.70318576469E+02  0.14782094780E+03  0.12509000000E+03 0.  0.
         25    1    4    4    0    0  0.75048196342E+02  0.62990432041E+01 -0.17783850310E+03  0.23009987181E+03  0.12509000000E+03 0.  0.
<mgrwt>
<rscale>  2 0.45349797E+03</rscale>
<asrwt>0</asrwt>
<pdfrwt beam="1">  1       21 0.14077239E-01 0.45349797E+03</pdfrwt>
<pdfrwt beam="2">  1       21 0.78986960E-01 0.45349797E+03</pdfrwt>
<totfact> 0.57378529E+04</totfact>
</mgrwt>
</event>
<event>
 7    0  0.4709932E-002  0.4561381E+03  0.7546771E-02  0.1025907E+00
         21   -1    0    0  502  501  0.00000000000E+00  0.00000000000E+00  0.11002062843E+04  0.11002062843E+04  0.00000000000E+00 0.  1.
         21   -1    0    0  501  502 -0.00000000000E+00 -0.00000000000E+00 -0.47277952028E+02  0.47277952028E+02  0.00000000000E+00 0.  1.
      99926    2    1    2    0    0  0.17763568394E-14  0.00000000000E+00  0.10529283323E+04  0.11474842364E+04  0.45613813668E+03 0.  0.
      99925    2    3    3    0    0  0.15752434461E+02  0.47040972052E+02  0.92075691155E+03  0.95886349305E+03  0.26299223544E+03 0.  0.
         25    1    3    3    0    0 -0.15752434461E+02 -0.47040972052E+02  0.13217142076E+03  0.18862074332E+03  0.12509000000E+03 0.  0.
         25    1    4    4    0    0  0.43937180199E+02  0.39723102781E+02  0.44067730514E+03  0.46190085090E+03  0.12509000000E+03 0.  0.
         25    1    4    4    0    0 -0.28184745738E+02  0.73178692712E+01  0.48007960641E+03  0.49696264215E+03  0.12509000000E+03 0.  0.
<mgrwt>
<rscale>  2 0.45613814E+03</rscale>
<asrwt>0</asrwt>
<pdfrwt beam="1">  1       21 0.16179503E+00 0.45613814E+03</pdfrwt>
<pdfrwt beam="2">  1       21 0.69526407E-02 0.45613814E+03</pdfrwt>
<totfact> 0.33567723E+04</totfact>
</mgrwt>
</event>
<event>
 7    0  0.4709932E-002  0.4528499E+03  0.7546771E-02  0.1026876E+00
         21   -1    0    0  502  501  0.00000000000E+00  0.00000000000E+00  0.21037296288E+03  0.21037296288E+03  0.00000000000E+00 0.  1.
         21   -1    0    0  501  502 -0.00000000000E+00 -0.00000000000E+00 -0.24370176684E+03  0.24370176684E+03  0.00000000000E+00 0.  1.
      99926    2    1    2    0    0  0.00000000000E+00  0.00000000000E+00 -0.33328803956E+02  0.45407472972E+03  0.45284992105E+03 0.  0.
      99925    2    3    3    0    0  0.93993671251E+02 -0.20464541174E+02  0.34650874543E+02  0.28225403111E+03  0.26308372677E+03 0.  0.
         25    1    4    4    0    0  0.65175586832E+02  0.10572272033E+02 -0.12561441978E+02  0.14200326750E+03  0.12509000000E+03 0.  0.
         25    1    3    3    0    0 -0.93993671251E+02  0.20464541174E+02 -0.67979678499E+02  0.17182069861E+03  0.12509000000E+03 0.  0.
         25    1    4    4    0    0  0.28818084419E+02 -0.31036813207E+02  0.47212316521E+02  0.14025076362E+03  0.12509000000E+03 0.  0.
<mgrwt>
<rscale>  2 0.45284992E+03</rscale>
<asrwt>0</asrwt>
<pdfrwt beam="1">  1       21 0.30937200E-01 0.45284992E+03</pdfrwt>
<pdfrwt beam="2">  1       21 0.35838495E-01 0.45284992E+03</pdfrwt>
<totfact> 0.69803475E+04</totfact>
</mgrwt>
</event>
<event>
 7    0  0.4709932E-002  0.4596539E+03  0.7546771E-02  0.1024882E+00
         21   -1    0    0  502  501  0.00000000000E+00  0.00000000000E+00  0.16626400811E+04  0.16626400811E+04  0.00000000000E+00 0.  1.
         21   -1    0    0  501  502 -0.00000000000E+00 -0.00000000000E+00 -0.31769009450E+02  0.31769009450E+02  0.00000000000E+00 0.  1.
      99926    2    1    2    0    0 -0.14210854715E-13  0.00000000000E+00  0.16308710716E+04  0.16944090905E+04  0.45965390653E+03 0.  0.
      99925    2    3    3    0    0  0.93385915261E+02 -0.53474206358E+02  0.84005657686E+03  0.88656288416E+03  0.26214170847E+03 0.  0.
         25    1    3    3    0    0 -0.93385915261E+02  0.53474206358E+02  0.79081449475E+03  0.80784620635E+03  0.12509000000E+03 0.  0.
         25    1    4    4    0    0  0.81358962770E+02 -0.14735218079E+02  0.39575588349E+03  0.42320991823E+03  0.12509000000E+03 0.  0.
         25    1    4    4    0    0  0.12026952491E+02 -0.38738988279E+02  0.44430069337E+03  0.46335296592E+03  0.12509000000E+03 0.  0.
<mgrwt>
<rscale>  2 0.45965391E+03</rscale>
<asrwt>0</asrwt>
<pdfrwt beam="1">  1       21 0.24450584E+00 0.45965391E+03</pdfrwt>
<pdfrwt beam="2">  1       21 0.46719143E-02 0.45965391E+03</pdfrwt>
<totfact> 0.18693540E+04</totfact>
</mgrwt>
</event>
<event>
 7    0  0.4709932E-002  0.4533502E+03  0.7546771E-02  0.1026728E+00
         21   -1    0    0  502  501  0.00000000000E+00  0.00000000000E+00  0.44842275013E+02  0.44842275013E+02  0.00000000000E+00 0. -1.
         21   -1    0    0  501  502 -0.00000000000E+00 -0.00000000000E+00 -0.11458295550E+04  0.11458295550E+04  0.00000000000E+00 0. -1.
      99926    2    1    2    0    0  0.00000000000E+00 -0.71054273576E-14 -0.11009872800E+04  0.11906718300E+04  0.45335021352E+03 0.  0.
      99925    2    3    3    0    0  0.92683271681E+02 -0.61577289342E+02 -0.67409515405E+03  0.73212374453E+03  0.26309494329E+03 0.  0.
         25    1    4    4    0    0  0.10602376761E+02 -0.81223145438E+01 -0.26806592585E+03  0.29611692131E+03  0.12509000000E+03 0.  0.
         25    1    4    4    0    0  0.82080894920E+02 -0.53454974799E+02 -0.40602922820E+03  0.43600682322E+03  0.12509000000E+03 0.  0.
         25    1    3    3    0    0 -0.92683271681E+02  0.61577289342E+02 -0.42689212597E+03  0.45854808551E+03  0.12509000000E+03 0.  0.
<mgrwt>
<rscale>  2 0.45335021E+03</rscale>
<asrwt>0</asrwt>
<pdfrwt beam="1">  1       21 0.65944531E-02 0.45335021E+03</pdfrwt>
<pdfrwt beam="2">  1       21 0.16850432E+00 0.45335021E+03</pdfrwt>
<totfact> 0.32873493E+04</totfact>
</mgrwt>
</event>
<event>
 7    0  0.4709932E-002  0.4468253E+03  0.7546771E-02  0.1028673E+00
         21   -1    0    0  502  501  0.00000000000E+00  0.00000000000E+00  0.20604459295E+03  0.20604459295E+03  0.00000000000E+00 0.  1.
         21   -1    0    0  501  502 -0.00000000000E+00 -0.00000000000E+00 -0.24224466709E+03  0.24224466709E+03  0.00000000000E+00 0.  1.
      99926    2    1    2    0    0  0.35527136788E-14  0.00000000000E+00 -0.36200074141E+02  0.44828926004E+03  0.44682526260E+03 0.  0.
      99925    2    3    3    0    0 -0.30279283720E+02 -0.45976233177E+02 -0.11346750762E+03  0.29129112815E+03  0.26257379347E+03 0.  0.
         25    1    3    3    0    0  0.30279283720E+02  0.45976233177E+02  0.77267433477E+02  0.15699813189E+03  0.12509000000E+03 0.  0.
         25    1    4    4    0    0 -0.29816942918E+02 -0.24760050691E+02 -0.17316020788E+02  0.13209641506E+03  0.12509000000E+03 0.  0.
         25    1    4    4    0    0 -0.46234080224E+00 -0.21216182485E+02 -0.96151486831E+02  0.15919471310E+03  0.12509000000E+03 0.  0.
<mgrwt>
<rscale>  2 0.44682526E+03</rscale>
<asrwt>0</asrwt>
<pdfrwt beam="1">  1       21 0.30300675E-01 0.44682526E+03</pdfrwt>
<pdfrwt beam="2">  1       21 0.35624216E-01 0.44682526E+03</pdfrwt>
<totfact> 0.73733346E+04</totfact>
</mgrwt>
</event>
<event>
 7    0  0.4709932E-002  0.4637753E+03  0.7546771E-02  0.1023692E+00
         21   -1    0    0  502  501  0.00000000000E+00  0.00000000000E+00  0.15843742014E+03  0.15843742014E+03  0.00000000000E+00 0.  1.
         21   -1    0    0  501  502 -0.00000000000E+00 -0.00000000000E+00 -0.33938882835E+03  0.33938882835E+03  0.00000000000E+00 0.  1.
      99926    2    1    2    0    0  0.00000000000E+00  0.00000000000E+00 -0.18095140821E+03  0.49782624849E+03  0.46377533521E+03 0.  0.
      99925    2    3    3    0    0 -0.10003562011E+03 -0.23483436536E+01 -0.18603701354E+03  0.33755768797E+03  0.26329219946E+03 0.  0.
         25    1    4    4    0    0 -0.74723045013E+02 -0.13000279987E+02 -0.60759855272E+02  0.15840394202E+03  0.12509000000E+03 0.  0.
         25    1    4    4    0    0 -0.25312575096E+02  0.10651936333E+02 -0.12527715827E+03  0.17915374595E+03  0.12509000000E+03 0.  0.
         25    1    3    3    0    0  0.10003562011E+03  0.23483436536E+01  0.50856053256E+01  0.16026856052E+03  0.12509000000E+03 0.  0.
<mgrwt>
<rscale>  2 0.46377534E+03</rscale>
<asrwt>0</asrwt>
<pdfrwt beam="1">  1       21 0.23299620E-01 0.46377534E+03</pdfrwt>
<pdfrwt beam="2">  1       21 0.49910122E-01 0.46377534E+03</pdfrwt>
<totfact> 0.61057962E+04</totfact>
</mgrwt>
</event>
<event>
 7    0  0.4709932E-002  0.4553975E+03  0.7546771E-02  0.1026125E+00
         21   -1    0    0  502  501  0.00000000000E+00  0.00000000000E+00  0.13892782172E+03  0.13892782172E+03  0.00000000000E+00 0.  1.
         21   -1    0    0  501  502 -0.00000000000E+00 -0.00000000000E+00 -0.37319177574E+03  0.37319177574E+03  0.00000000000E+00 0.  1.
      99926    2    1    2    0    0  0.00000000000E+00  0.00000000000E+00 -0.23426395402E+03  0.51211959746E+03  0.45539749884E+03 0.  0.
      99925    2    3    3    0    0  0.78917412796E+02 -0.75862861935E+01 -0.23827271024E+03  0.36396735142E+03  0.26346316378E+03 0.  0.
         25    1    4    4    0    0  0.37621963422E+02 -0.13658129611E+02 -0.65916762048E+02  0.14695061842E+03  0.12509000000E+03 0.  0.
         25    1    3    3    0    0 -0.78917412796E+02  0.75862861935E+01  0.40087562183E+01  0.14815224604E+03  0.12509000000E+03 0.  0.
         25    1    4    4    0    0  0.41295449374E+02  0.60718434179E+01 -0.17235594819E+03  0.21701673299E+03  0.12509000000E+03 0.  0.
<mgrwt>
<rscale>  2 0.45539750E+03</rscale>
<asrwt>0</asrwt>
<pdfrwt beam="1">  1       21 0.20430563E-01 0.45539750E+03</pdfrwt>
<pdfrwt beam="2">  1       21 0.54881142E-01 0.45539750E+03</pdfrwt>
<totfact> 0.64224502E+04</totfact>
</mgrwt>
</event>
<event>
 7    0  0.4709932E-002  0.4522694E+03  0.7546771E-02  0.1027047E+00
         21   -1    0    0  502  501  0.00000000000E+00  0.00000000000E+00  0.24927193578E+04  0.24927193578E+04  0.00000000000E+00 0. -1.
         21   -1    0    0  501  502 -0.00000000000E+00 -0.00000000000E+00 -0.20514501372E+02  0.20514501372E+02  0.00000000000E+00 0. -1.
      99926    2    1    2    0    0  0.00000000000E+00  0.35527136788E-14  0.24722048564E+04  0.25132338592E+04  0.45226936525E+03 0.  0.
      99925    2    3    3    0    0 -0.72662656485E+02  0.26740671986E+02  0.19966627314E+04  0.20154560513E+04  0.26345038768E+03 0.  0.
         25    1    4    4    0    0 -0.66946524332E+02 -0.14784982225E+02  0.10251727871E+04  0.10350493633E+04  0.12509000000E+03 0.  0.
         25    1    4    4    0    0 -0.57161321530E+01  0.41525654211E+02  0.97148994424E+03  0.98040668806E+03  0.12509000000E+03 0.  0.
         25    1    3    3    0    0  0.72662656485E+02 -0.26740671986E+02  0.47554212504E+03  0.49777780784E+03  0.12509000000E+03 0.  0.
<mgrwt>
<rscale>  2 0.45226937E+03</rscale>
<asrwt>0</asrwt>
<pdfrwt beam="1">  1       21 0.36657617E+00 0.45226937E+03</pdfrwt>
<pdfrwt beam="2">  1       21 0.30168401E-02 0.45226937E+03</pdfrwt>
<totfact> 0.71478775E+03</totfact>
</mgrwt>
</event>
<event>
 7    0  0.4709932E-002  0.4495488E+03  0.7546771E-02  0.1027857E+00
         21   -1    0    0  502  501  0.00000000000E+00  0.00000000000E+00  0.76237941606E+03  0.76237941606E+03  0.00000000000E+00 0. -1.
         21   -1    0    0  501  502 -0.00000000000E+00 -0.00000000000E+00 -0.66270849702E+02  0.66270849702E+02  0.00000000000E+00 0. -1.
      99926    2    1    2    0    0  0.00000000000E+00  0.00000000000E+00  0.69610856635E+03  0.82865026576E+03  0.44954880357E+03 0.  0.
      99925    2    3    3    0    0 -0.61155174428E+02 -0.87829655459E+02  0.46435255230E+03  0.54437511404E+03  0.26318618546E+03 0.  0.
         25    1    4    4    0    0  0.35816297911E+01 -0.31265568563E+02  0.17226315805E+03  0.21520331682E+03  0.12509000000E+03 0.  0.
         25    1    4    4    0    0 -0.64736804219E+02 -0.56564086896E+02  0.29208939425E+03  0.32917179722E+03  0.12509000000E+03 0.  0.
         25    1    3    3    0    0  0.61155174428E+02  0.87829655459E+02  0.23175601405E+03  0.28427515172E+03  0.12509000000E+03 0.  0.
<mgrwt>
<rscale>  2 0.44954880E+03</rscale>
<asrwt>0</asrwt>
<pdfrwt beam="1">  1       21 0.11211462E+00 0.44954880E+03</pdfrwt>
<pdfrwt beam="2">  1       21 0.97457136E-02 0.44954880E+03</pdfrwt>
<totfact> 0.48449256E+04</totfact>
</mgrwt>
</event>
<event>
 7    0  0.4709932E-002  0.4585187E+03  0.7546771E-02  0.1025212E+00
         21   -1    0    0  502  501  0.00000000000E+00  0.00000000000E+00  0.89595505084E+02  0.89595505084E+02  0.00000000000E+00 0.  1.
         21   -1    0    0  501  502 -0.00000000000E+00 -0.00000000000E+00 -0.58663482142E+03  0.58663482142E+03  0.00000000000E+00 0.  1.
      99926    2    1    2    0    0  0.71054273576E-14  0.00000000000E+00 -0.49703931633E+03  0.67623032650E+03  0.45851867192E+03 0.  0.
      99925    2    3    3    0    0 -0.37993314653E+02 -0.10120793028E+03 -0.37639966975E+03  0.47156482003E+03  0.26269779404E+03 0.  0.
         25    1    3    3    0    0  0.37993314653E+02  0.10120793028E+03 -0.12063964658E+03  0.20466550647E+03  0.12509000000E+03 0.  0.
         25    1    4    4    0    0 -0.13895652167E+02 -0.89988341350E+01 -0.15204511294E+03  0.19758363453E+03  0.12509000000E+03 0.  0.
         25    1    4    4    0    0 -0.24097662486E+02 -0.92209096145E+02 -0.22435455681E+03  0.27398118550E+03  0.12509000000E+03 0.  0.
<mgrwt>
<rscale>  2 0.45851867E+03</rscale>
<asrwt>0</asrwt>
<pdfrwt beam="1">  1       21 0.13175809E-01 0.45851867E+03</pdfrwt>
<pdfrwt beam="2">  1       21 0.86269829E-01 0.45851867E+03</pdfrwt>
<totfact> 0.52735290E+04</totfact>
</mgrwt>
</event>
<event>
 7    0  0.4709932E-002  0.4548388E+03  0.7546771E-02  0.1026289E+00
         21   -1    0    0  502  501  0.00000000000E+00  0.00000000000E+00  0.44258492536E+03  0.44258492536E+03  0.00000000000E+00 0.  1.
         21   -1    0    0  501  502 -0.00000000000E+00 -0.00000000000E+00 -0.11685797211E+03  0.11685797211E+03  0.00000000000E+00 0.  1.
      99926    2    1    2    0    0  0.00000000000E+00  0.00000000000E+00  0.32572695325E+03  0.55944289748E+03  0.45483877084E+03 0.  0.
      99925    2    3    3    0    0 -0.29494329668E+02 -0.73741549476E+02  0.10616800656E+03  0.29456297983E+03  0.26303606571E+03 0.  0.
         25    1    3    3    0    0  0.29494329668E+02  0.73741549476E+02  0.21955894669E+03  0.26487991765E+03  0.12509000000E+03 0.  0.
         25    1    4    4    0    0 -0.13501236841E+02 -0.78833401320E+02  0.53843257535E+02  0.15793540782E+03  0.12509000000E+03 0.  0.
         25    1    4    4    0    0 -0.15993092827E+02  0.50918518444E+01  0.52324749026E+02  0.13662757201E+03  0.12509000000E+03 0.  0.
<mgrwt>
<rscale>  2 0.45483877E+03</rscale>
<asrwt>0</asrwt>
<pdfrwt beam="1">  1       21 0.65086018E-01 0.45483877E+03</pdfrwt>
<pdfrwt beam="2">  1       21 0.17184996E-01 0.45483877E+03</pdfrwt>
<totfact> 0.61324969E+04</totfact>
</mgrwt>
</event>
<event>
 7    0  0.4709932E-002  0.4538486E+03  0.7546771E-02  0.1026581E+00
         21   -1    0    0  502  501  0.00000000000E+00  0.00000000000E+00  0.33839092796E+03  0.33839092796E+03  0.00000000000E+00 0.  1.
         21   -1    0    0  501  502 -0.00000000000E+00 -0.00000000000E+00 -0.15217499746E+03  0.15217499746E+03  0.00000000000E+00 0.  1.
      99926    2    1    2    0    0  0.00000000000E+00 -0.71054273576E-14  0.18621593050E+03  0.49056592543E+03  0.45384860297E+03 0.  0.
      99925    2    3    3    0    0  0.10335155635E+03  0.46916103442E+02  0.12053148481E+03  0.30933507963E+03  0.26129999560E+03 0.  0.
         25    1    4    4    0    0  0.73857044400E+02  0.48789793721E+01  0.89184655184E+02  0.17052881946E+03  0.12509000000E+03 0.  0.
         25    1    3    3    0    0 -0.10335155635E+03 -0.46916103442E+02  0.65684445695E+02  0.18123084579E+03  0.12509000000E+03 0.  0.
         25    1    4    4    0    0  0.29494511946E+02  0.42037124070E+02  0.31346829621E+02  0.13880626017E+03  0.12509000000E+03 0.  0.
<mgrwt>
<rscale>  2 0.45384860E+03</rscale>
<asrwt>0</asrwt>
<pdfrwt beam="1">  1       21 0.49763372E-01 0.45384860E+03</pdfrwt>
<pdfrwt beam="2">  1       21 0.22378676E-01 0.45384860E+03</pdfrwt>
<totfact> 0.66544828E+04</totfact>
</mgrwt>
</event>
<event>
 7    0  0.4709932E-002  0.4514587E+03  0.7546771E-02  0.1027288E+00
         21   -1    0    0  502  501  0.00000000000E+00  0.00000000000E+00  0.91111017194E+03  0.91111017194E+03  0.00000000000E+00 0.  1.
         21   -1    0    0  501  502 -0.00000000000E+00 -0.00000000000E+00 -0.55924897668E+02  0.55924897668E+02  0.00000000000E+00 0.  1.
      99926    2    1    2    0    0 -0.44408920985E-15  0.00000000000E+00  0.85518527427E+03  0.96703506961E+03  0.45145871630E+03 0.  0.
      99925    2    3    3    0    0  0.24453462072E+01 -0.10299391982E+03  0.45820038724E+03  0.53824813433E+03  0.26296336627E+03 0.  0.
         25    1    4    4    0    0 -0.14044158916E+02 -0.34436425427E+02  0.15398981775E+03  0.20185013715E+03  0.12509000000E+03 0.  0.
         25    1    4    4    0    0  0.16489505123E+02 -0.68557494389E+02  0.30421056949E+03  0.33639799718E+03  0.12509000000E+03 0.  0.
         25    1    3    3    0    0 -0.24453462072E+01  0.10299391982E+03  0.39698488703E+03  0.42878693528E+03  0.12509000000E+03 0.  0.
<mgrwt>
<rscale>  2 0.45145872E+03</rscale>
<asrwt>0</asrwt>
<pdfrwt beam="1">  1       21 0.13398678E+00 0.45145872E+03</pdfrwt>
<pdfrwt beam="2">  1       21 0.82242502E-02 0.45145872E+03</pdfrwt>
<totfact> 0.41598450E+04</totfact>
</mgrwt>
</event>
<event>
 7    0  0.4709932E-002  0.4797852E+03  0.7546771E-02  0.1019194E+00
         21   -1    0    0  502  501  0.00000000000E+00  0.00000000000E+00  0.59177025011E+03  0.59177025011E+03  0.00000000000E+00 0.  1.
         21   -1    0    0  501  502 -0.00000000000E+00 -0.00000000000E+00 -0.97247957493E+02  0.97247957493E+02  0.00000000000E+00 0.  1.
      99926    2    1    2    0    0 -0.71054273576E-14  0.00000000000E+00  0.49452229262E+03  0.68901820761E+03  0.47978515245E+03 0.  0.
      99925    2    3    3    0    0  0.42466111152E+02 -0.99743265300E+02  0.18917967788E+03  0.34169456884E+03  0.26308580023E+03 0.  0.
         25    1    3    3    0    0 -0.42466111152E+02  0.99743265300E+02  0.30534261474E+03  0.34732363876E+03  0.12509000000E+03 0.  0.
         25    1    4    4    0    0  0.44781225533E+02 -0.48016950835E+02  0.13643499355E+03  0.19640010512E+03  0.12509000000E+03 0.  0.
         25    1    4    4    0    0 -0.23151143809E+01 -0.51726314464E+02  0.52744684336E+02  0.14529446372E+03  0.12509000000E+03 0.  0.
<mgrwt>
<rscale>  2 0.47978515E+03</rscale>
<asrwt>0</asrwt>
<pdfrwt beam="1">  1       21 0.87025036E-01 0.47978515E+03</pdfrwt>
<pdfrwt beam="2">  1       21 0.14301170E-01 0.47978515E+03</pdfrwt>
<totfact> 0.44215382E+04</totfact>
</mgrwt>
</event>
<event>
 7    0  0.4709932E-002  0.4480687E+03  0.7546771E-02  0.1028300E+00
         21   -1    0    0  502  501  0.00000000000E+00  0.00000000000E+00  0.56519715732E+02  0.56519715732E+02  0.00000000000E+00 0.  1.
         21   -1    0    0  501  502 -0.00000000000E+00 -0.00000000000E+00 -0.88803319265E+03  0.88803319265E+03  0.00000000000E+00 0.  1.
      99926    2    1    2    0    0  0.00000000000E+00  0.00000000000E+00 -0.83151347692E+03  0.94455290838E+03  0.44806867157E+03 0.  0.
      99925    2    3    3    0    0 -0.32848368597E+02  0.65529383712E+02 -0.68923945129E+03  0.74142112377E+03  0.26321311920E+03 0.  0.
         25    1    4    4    0    0 -0.29395102416E+02 -0.68258278641E+01 -0.32374340264E+03  0.34837905050E+03  0.12509000000E+03 0.  0.
         25    1    3    3    0    0  0.32848368597E+02 -0.65529383712E+02 -0.14227402563E+03  0.20313178461E+03  0.12509000000E+03 0.  0.
         25    1    4    4    0    0 -0.34532661813E+01  0.72355211576E+02 -0.36549604864E+03  0.39304207327E+03  0.12509000000E+03 0.  0.
<mgrwt>
<rscale>  2 0.44806867E+03</rscale>
<asrwt>0</asrwt>
<pdfrwt beam="1">  1       21 0.83117231E-02 0.44806867E+03</pdfrwt>
<pdfrwt beam="2">  1       21 0.13059311E+00 0.44806867E+03</pdfrwt>
<totfact> 0.43682287E+04</totfact>
</mgrwt>
</event>
<event>
 7    0  0.4709932E-002  0.4621726E+03  0.7546771E-02  0.1024153E+00
         21   -1    0    0  502  501  0.00000000000E+00  0.00000000000E+00  0.27556870541E+03  0.27556870541E+03  0.00000000000E+00 0. -1.
         21   -1    0    0  501  502 -0.00000000000E+00 -0.00000000000E+00 -0.19378426123E+03  0.19378426123E+03  0.00000000000E+00 0. -1.
      99926    2    1    2    0    0 -0.35527136788E-14  0.17763568394E-14  0.81784444177E+02  0.46935296664E+03  0.46217259978E+03 0.  0.
      99925    2    3    3    0    0 -0.28741592209E+02  0.98888357830E+01 -0.66509802218E+02  0.27297944549E+03  0.26300257731E+03 0.  0.
         25    1    3    3    0    0  0.28741592209E+02 -0.98888357830E+01  0.14829424639E+03  0.19637352115E+03  0.12509000000E+03 0.  0.
         25    1    4    4    0    0  0.15344925194E+02 -0.87339784008E+01 -0.57337908919E+02  0.13873317198E+03  0.12509000000E+03 0.  0.
         25    1    4    4    0    0 -0.44086517403E+02  0.18622814184E+02 -0.91718932990E+01  0.13424627351E+03  0.12509000000E+03 0.  0.
<mgrwt>
<rscale>  2 0.46217260E+03</rscale>
<asrwt>0</asrwt>
<pdfrwt beam="1">  1       21 0.40524810E-01 0.46217260E+03</pdfrwt>
<pdfrwt beam="2">  1       21 0.28497685E-01 0.46217260E+03</pdfrwt>
<totfact> 0.63773709E+04</totfact>
</mgrwt>
</event>
<event>
 7    0  0.4709932E-002  0.4543932E+03  0.7546771E-02  0.1026420E+00
         21   -1    0    0  502  501  0.00000000000E+00  0.00000000000E+00  0.91413902811E+02  0.91413902811E+02  0.00000000000E+00 0.  1.
         21   -1    0    0  501  502 -0.00000000000E+00 -0.00000000000E+00 -0.56466563753E+03  0.56466563753E+03  0.00000000000E+00 0.  1.
      99926    2    1    2    0    0  0.00000000000E+00  0.35527136788E-14 -0.47325173472E+03  0.65607954034E+03  0.45439317649E+03 0.  0.
      99925    2    3    3    0    0  0.50124650870E+02  0.26248405667E+02 -0.43883894814E+03  0.51454082689E+03  0.26262364842E+03 0.  0.
         25    1    4    4    0    0  0.23767282662E+02 -0.92523563541E+01 -0.27894146945E+03  0.30676756885E+03  0.12509000000E+03 0.  0.
         25    1    3    3    0    0 -0.50124650870E+02 -0.26248405667E+02 -0.34412786577E+02  0.14153871345E+03  0.12509000000E+03 0.  0.
         25    1    4    4    0    0  0.26357368208E+02  0.35500762021E+02 -0.15989747870E+03  0.20777325804E+03  0.12509000000E+03 0.  0.
<mgrwt>
<rscale>  2 0.45439318E+03</rscale>
<asrwt>0</asrwt>
<pdfrwt beam="1">  1       21 0.13443221E-01 0.45439318E+03</pdfrwt>
<pdfrwt beam="2">  1       21 0.83039062E-01 0.45439318E+03</pdfrwt>
<totfact> 0.55618319E+04</totfact>
</mgrwt>
</event>
<event>
 7    0  0.4709932E-002  0.4504143E+03  0.7546771E-02  0.1027599E+00
         21   -1    0    0  502  501  0.00000000000E+00  0.00000000000E+00  0.78300862393E+02  0.78300862393E+02  0.00000000000E+00 0.  1.
         21   -1    0    0  501  502 -0.00000000000E+00 -0.00000000000E+00 -0.64773575335E+03  0.64773575335E+03  0.00000000000E+00 0.  1.
      99926    2    1    2    0    0  0.48849813084E-14 -0.14210854715E-13 -0.56943489096E+03  0.72603661575E+03  0.45041433410E+03 0.  0.
      99925    2    3    3    0    0 -0.29593426789E+01 -0.74366722984E+02 -0.48761997603E+03  0.55906249919E+03  0.26313203867E+03 0.  0.
         25    1    3    3    0    0  0.29593426789E+01  0.74366722984E+02 -0.81814914932E+02  0.16697411656E+03  0.12509000000E+03 0.  0.
         25    1    4    4    0    0  0.35862694843E+02 -0.39854716296E+02 -0.27739001536E+03  0.30897776621E+03  0.12509000000E+03 0.  0.
         25    1    4    4    0    0 -0.38822037522E+02 -0.34512006688E+02 -0.21022996067E+03  0.25008473297E+03  0.12509000000E+03 0.  0.
<mgrwt>
<rscale>  2 0.45041433E+03</rscale>
<asrwt>0</asrwt>
<pdfrwt beam="1">  1       21 0.11514833E-01 0.45041433E+03</pdfrwt>
<pdfrwt beam="2">  1       21 0.95255258E-01 0.45041433E+03</pdfrwt>
<totfact> 0.53412376E+04</totfact>
</mgrwt>
</event>
<event>
 7    0  0.4709932E-002  0.4174822E+03  0.7546771E-02  0.1037889E+00
         21   -1    0    0  502  501  0.00000000000E+00  0.00000000000E+00  0.90462306888E+02  0.90462306888E+02  0.00000000000E+00 0.  1.
         21   -1    0    0  501  502 -0.00000000000E+00 -0.00000000000E+00 -0.48166848793E+03  0.48166848793E+03  0.00000000000E+00 0.  1.
      99926    2    1    2    0    0 -0.71054273576E-14  0.35527136788E-14 -0.39120618104E+03  0.57213079481E+03  0.41748217961E+03 0.  0.
      99925    2    3    3    0    0 -0.57816261407E+02 -0.22813607519E+02 -0.20482500141E+03  0.33921743540E+03  0.26315775974E+03 0.  0.
         25    1    4    4    0    0  0.14665880307E+01 -0.35959995028E+02 -0.83214660419E+02  0.15449097039E+03  0.12509000000E+03 0.  0.
         25    1    4    4    0    0 -0.59282849438E+02  0.13146387509E+02 -0.12161034099E+03  0.18472646502E+03  0.12509000000E+03 0.  0.
         25    1    3    3    0    0  0.57816261407E+02  0.22813607519E+02 -0.18638117963E+03  0.23291335941E+03  0.12509000000E+03 0.  0.
<mgrwt>
<rscale>  2 0.41748218E+03</rscale>
<asrwt>0</asrwt>
<pdfrwt beam="1">  1       21 0.13303281E-01 0.41748218E+03</pdfrwt>
<pdfrwt beam="2">  1       21 0.70833600E-01 0.41748218E+03</pdfrwt>
<totfact> 0.82240521E+04</totfact>
</mgrwt>
</event>
<event>
 7    0  0.4709932E-002  0.4527398E+03  0.7546771E-02  0.1026908E+00
         21   -1    0    0  502  501  0.00000000000E+00  0.00000000000E+00  0.17607993407E+03  0.17607993407E+03  0.00000000000E+00 0.  1.
         21   -1    0    0  501  502 -0.00000000000E+00 -0.00000000000E+00 -0.29102308179E+03  0.29102308179E+03  0.00000000000E+00 0.  1.
      99926    2    1    2    0    0  0.00000000000E+00  0.35527136788E-14 -0.11494314772E+03  0.46710301586E+03  0.45273977097E+03 0.  0.
      99925    2    3    3    0    0 -0.75640468770E+02  0.31060445786E+02 -0.14997401816E+03  0.31360740748E+03  0.26300412182E+03 0.  0.
         25    1    3    3    0    0  0.75640468770E+02 -0.31060445786E+02  0.35030870447E+02  0.15349560838E+03  0.12509000000E+03 0.  0.
         25    1    4    4    0    0 -0.63889016165E+02  0.46181901399E+02 -0.94186267520E+02  0.17530868630E+03  0.12509000000E+03 0.  0.
         25    1    4    4    0    0 -0.11751452605E+02 -0.15121455614E+02 -0.55787750644E+02  0.13829872118E+03  0.12509000000E+03 0.  0.
<mgrwt>
<rscale>  2 0.45273977E+03</rscale>
<asrwt>0</asrwt>
<pdfrwt beam="1">  1       21 0.25894108E-01 0.45273977E+03</pdfrwt>
<pdfrwt beam="2">  1       21 0.42797511E-01 0.45273977E+03</pdfrwt>
<totfact> 0.68878533E+04</totfact>
</mgrwt>
</event>
<event>
 7    0  0.4709932E-002  0.4526419E+03  0.7546771E-02  0.1026937E+00
         21   -1    0    0  502  501  0.00000000000E+00  0.00000000000E+00  0.66674080702E+02  0.66674080702E+02  0.00000000000E+00 0.  1.
         21   -1    0    0  501  502 -0.00000000000E+00 -0.00000000000E+00 -0.76823211130E+03  0.76823211130E+03  0.00000000000E+00 0.  1.
      99926    2    1    2    0    0  0.00000000000E+00  0.00000000000E+00 -0.70155803059E+03  0.83490619200E+03  0.45264188841E+03 0.  0.
      99925    2    3    3    0    0  0.51567180079E+02 -0.32749318684E+02 -0.27595449340E+03  0.38711430852E+03  0.26452771783E+03 0.  0.
         25    1    3    3    0    0 -0.51567180079E+02  0.32749318684E+02 -0.42560353719E+03  0.44779188348E+03  0.12509000000E+03 0.  0.
         25    1    4    4    0    0  0.55393159114E+02  0.38772364113E+01 -0.10718375492E+03  0.17383699393E+03  0.12509000000E+03 0.  0.
         25    1    4    4    0    0 -0.38259790353E+01 -0.36626555095E+02 -0.16877073848E+03  0.21327731459E+03  0.12509000000E+03 0.  0.
<mgrwt>
<rscale>  2 0.45264189E+03</rscale>
<asrwt>0</asrwt>
<pdfrwt beam="1">  1       21 0.98050123E-02 0.45264189E+03</pdfrwt>
<pdfrwt beam="2">  1       21 0.11297531E+00 0.45264189E+03</pdfrwt>
<totfact> 0.46985581E+04</totfact>
</mgrwt>
</event>
<event>
 7    0  0.4709932E-002  0.4532698E+03  0.7546771E-02  0.1026751E+00
         21   -1    0    0  502  501  0.00000000000E+00  0.00000000000E+00  0.90262181921E+03  0.90262181921E+03  0.00000000000E+00 0. -1.
         21   -1    0    0  501  502 -0.00000000000E+00 -0.00000000000E+00 -0.56904648075E+02  0.56904648075E+02  0.00000000000E+00 0. -1.
      99926    2    1    2    0    0  0.00000000000E+00  0.00000000000E+00  0.84571717114E+03  0.95952646729E+03  0.45326979589E+03 0.  0.
      99925    2    3    3    0    0  0.58596959878E+02 -0.94919535280E+02  0.52800345468E+03  0.60031505933E+03  0.26295855265E+03 0.  0.
         25    1    4    4    0    0 -0.75393858950E+01 -0.55370656165E+02  0.22206540757E+03  0.26092777783E+03  0.12509000000E+03 0.  0.
         25    1    3    3    0    0 -0.58596959878E+02  0.94919535280E+02  0.31771371646E+03  0.35921140796E+03  0.12509000000E+03 0.  0.
         25    1    4    4    0    0  0.66136345773E+02 -0.39548879115E+02  0.30593804711E+03  0.33938728149E+03  0.12509000000E+03 0.  0.
<mgrwt>
<rscale>  2 0.45326980E+03</rscale>
<asrwt>0</asrwt>
<pdfrwt beam="1">  1       21 0.13273849E+00 0.45326980E+03</pdfrwt>
<pdfrwt beam="2">  1       21 0.83683312E-02 0.45326980E+03</pdfrwt>
<totfact> 0.41313546E+04</totfact>
</mgrwt>
</event>
<event>
 7    0  0.4709932E-002  0.4568556E+03  0.7546771E-02  0.1025697E+00
         21   -1    0    0  502  501  0.00000000000E+00  0.00000000000E+00  0.52292361954E+03  0.52292361954E+03  0.00000000000E+00 0.  1.
         21   -1    0    0  501  502 -0.00000000000E+00 -0.00000000000E+00 -0.99783707739E+02  0.99783707739E+02  0.00000000000E+00 0.  1.
      99926    2    1    2    0    0 -0.35527136788E-14  0.00000000000E+00  0.42313991180E+03  0.62270732728E+03  0.45685559041E+03 0.  0.
      99925    2    3    3    0    0 -0.18529541150E+02  0.51041671404E+02  0.40354347662E+03  0.48493895469E+03  0.26338157897E+03 0.  0.
         25    1    3    3    0    0  0.18529541150E+02 -0.51041671404E+02  0.19596435189E+02  0.13776837259E+03  0.12509000000E+03 0.  0.
         25    1    4    4    0    0 -0.16879281921E+02  0.66792190073E+02  0.21093668551E+03  0.25473103503E+03  0.12509000000E+03 0.  0.
         25    1    4    4    0    0 -0.16502592288E+01 -0.15750518669E+02  0.19260679110E+03  0.23020791966E+03  0.12509000000E+03 0.  0.
<mgrwt>
<rscale>  2 0.45685559E+03</rscale>
<asrwt>0</asrwt>
<pdfrwt beam="1">  1       21 0.76900531E-01 0.45685559E+03</pdfrwt>
<pdfrwt beam="2">  1       21 0.14674075E-01 0.45685559E+03</pdfrwt>
<totfact> 0.56469959E+04</totfact>
</mgrwt>
</event>
<event>
 7    0  0.4709932E-002  0.4088982E+03  0.7546771E-02  0.1040741E+00
         21   -1    0    0  502  501  0.00000000000E+00  0.00000000000E+00  0.11688223382E+04  0.11688223382E+04  0.00000000000E+00 0. -1.
         21   -1    0    0  501  502 -0.00000000000E+00 -0.00000000000E+00 -0.35762002786E+02  0.35762002786E+02  0.00000000000E+00 0. -1.
      99926    2    1    2    0    0  0.00000000000E+00 -0.71054273576E-14  0.11330603354E+04  0.12045843410E+04  0.40889816686E+03 0.  0.
      99925    2    3    3    0    0 -0.43869433934E+02 -0.40823156843E+02  0.77583672708E+03  0.82137777552E+03  0.26295962743E+03 0.  0.
         25    1    4    4    0    0 -0.55472829366E+02  0.18958364304E+01  0.37983308832E+03  0.40373445738E+03  0.12509000000E+03 0.  0.
         25    1    3    3    0    0  0.43869433934E+02  0.40823156843E+02  0.35722360834E+03  0.38320656547E+03  0.12509000000E+03 0.  0.
         25    1    4    4    0    0  0.11603395431E+02 -0.42718993273E+02  0.39600363876E+03  0.41764331814E+03  0.12509000000E+03 0.  0.
<mgrwt>
<rscale>  2 0.40889817E+03</rscale>
<asrwt>0</asrwt>
<pdfrwt beam="1">  1       21 0.17188561E+00 0.40889817E+03</pdfrwt>
<pdfrwt beam="2">  1       21 0.52591188E-02 0.40889817E+03</pdfrwt>
<totfact> 0.46636740E+04</totfact>
</mgrwt>
</event>
<event>
 7    0  0.4709932E-002  0.4494427E+03  0.7546771E-02  0.1027888E+00
         21   -1    0    0  502  501  0.00000000000E+00  0.00000000000E+00  0.25362602480E+03  0.25362602480E+03  0.00000000000E+00 0. -1.
         21   -1    0    0  501  502 -0.00000000000E+00 -0.00000000000E+00 -0.19911081258E+03  0.19911081258E+03  0.00000000000E+00 0. -1.
      99926    2    1    2    0    0  0.00000000000E+00 -0.14210854715E-13  0.54515212219E+02  0.45273683738E+03  0.44944269441E+03 0.  0.
      99925    2    3    3    0    0  0.66102004849E+02 -0.57005089437E+02  0.98247578412E+02  0.29405765406E+03  0.26305562526E+03 0.  0.
         25    1    3    3    0    0 -0.66102004849E+02  0.57005089437E+02 -0.43732366193E+02  0.15867918332E+03  0.12509000000E+03 0.  0.
         25    1    4    4    0    0  0.37314938427E+02 -0.64399505604E+02  0.73737069208E+02  0.16316974115E+03  0.12509000000E+03 0.  0.
         25    1    4    4    0    0  0.28787066422E+02  0.73944161662E+01  0.24510509204E+02  0.13088791291E+03  0.12509000000E+03 0.  0.
<mgrwt>
<rscale>  2 0.44944269E+03</rscale>
<asrwt>0</asrwt>
<pdfrwt beam="1">  1       21 0.37297945E-01 0.44944269E+03</pdfrwt>
<pdfrwt beam="2">  1       21 0.29281002E-01 0.44944269E+03</pdfrwt>
<totfact> 0.71844798E+04</totfact>
</mgrwt>
</event>
<event>
 7    0  0.4709932E-002  0.4769998E+03  0.7546771E-02  0.1019963E+00
         21   -1    0    0  502  501  0.00000000000E+00  0.00000000000E+00  0.13488037457E+03  0.13488037457E+03  0.00000000000E+00 0.  1.
         21   -1    0    0  501  502 -0.00000000000E+00 -0.00000000000E+00 -0.42172329892E+03  0.42172329892E+03  0.00000000000E+00 0.  1.
      99926    2    1    2    0    0  0.00000000000E+00  0.00000000000E+00 -0.28684292436E+03  0.55660367349E+03  0.47699977577E+03 0.  0.
      99925    2    3    3    0    0 -0.98567335399E+02 -0.33418273328E+02 -0.81081570706E+02  0.29427269294E+03  0.26303972343E+03 0.  0.
         25    1    4    4    0    0 -0.24394760294E+02 -0.46048544839E+01 -0.49793556061E+01  0.12762684317E+03  0.12509000000E+03 0.  0.
         25    1    4    4    0    0 -0.74172575105E+02 -0.28813418844E+02 -0.76102215100E+02  0.16664584977E+03  0.12509000000E+03 0.  0.
         25    1    3    3    0    0  0.98567335399E+02  0.33418273328E+02 -0.20576135365E+03  0.26233098055E+03  0.12509000000E+03 0.  0.
<mgrwt>
<rscale>  2 0.47699978E+03</rscale>
<asrwt>0</asrwt>
<pdfrwt beam="1">  1       21 0.19835349E-01 0.47699978E+03</pdfrwt>
<pdfrwt beam="2">  1       21 0.62018132E-01 0.47699978E+03</pdfrwt>
<totfact> 0.51804294E+04</totfact>
</mgrwt>
</event>
<event>
 7    0  0.4709932E-002  0.4557627E+03  0.7546771E-02  0.1026017E+00
         21   -1    0    0  502  501  0.00000000000E+00  0.00000000000E+00  0.11070999893E+03  0.11070999893E+03  0.00000000000E+00 0.  1.
         21   -1    0    0  501  502 -0.00000000000E+00 -0.00000000000E+00 -0.46906258850E+03  0.46906258850E+03  0.00000000000E+00 0.  1.
      99926    2    1    2    0    0  0.00000000000E+00  0.00000000000E+00 -0.35835258957E+03  0.57977258742E+03  0.45576273946E+03 0.  0.
      99925    2    3    3    0    0  0.70004383344E+02 -0.60044280895E+02 -0.14049018241E+03  0.31215818962E+03  0.26305762608E+03 0.  0.
         25    1    4    4    0    0  0.62196592627E+02 -0.57103300387E+02 -0.97267503723E+02  0.17954854060E+03  0.12509000000E+03 0.  0.
         25    1    3    3    0    0 -0.70004383344E+02  0.60044280895E+02 -0.21786240716E+03  0.26761439780E+03  0.12509000000E+03 0.  0.
         25    1    4    4    0    0  0.78077907174E+01 -0.29409805087E+01 -0.43222678684E+02  0.13260964903E+03  0.12509000000E+03 0.  0.
<mgrwt>
<rscale>  2 0.45576274E+03</rscale>
<asrwt>0</asrwt>
<pdfrwt beam="1">  1       21 0.16280882E-01 0.45576274E+03</pdfrwt>
<pdfrwt beam="2">  1       21 0.68979794E-01 0.45576274E+03</pdfrwt>
<totfact> 0.59580827E+04</totfact>
</mgrwt>
</event>
<event>
 7    0  0.4709932E-002  0.4542785E+03  0.7546771E-02  0.1026454E+00
         21   -1    0    0  502  501  0.00000000000E+00  0.00000000000E+00  0.19219615035E+03  0.19219615035E+03  0.00000000000E+00 0. -1.
         21   -1    0    0  501  502 -0.00000000000E+00 -0.00000000000E+00 -0.26843530128E+03  0.26843530128E+03  0.00000000000E+00 0. -1.
      99926    2    1    2    0    0  0.00000000000E+00 -0.35527136788E-14 -0.76239150936E+02  0.46063145163E+03  0.45427846756E+03 0.  0.
      99925    2    3    3    0    0 -0.95024863470E+02 -0.20886627282E+02 -0.10529336530E+03  0.29951772984E+03  0.26297947036E+03 0.  0.
         25    1    4    4    0    0 -0.85027837203E+02 -0.24501313912E+02 -0.73885348389E+02  0.17010761385E+03  0.12509000000E+03 0.  0.
         25    1    3    3    0    0  0.95024863470E+02  0.20886627282E+02  0.29054214367E+02  0.16111372179E+03  0.12509000000E+03 0.  0.
         25    1    4    4    0    0 -0.99970262666E+01  0.36146866298E+01 -0.31408016913E+02  0.12941011599E+03  0.12509000000E+03 0.  0.
<mgrwt>
<rscale>  2 0.45427847E+03</rscale>
<asrwt>0</asrwt>
<pdfrwt beam="1">  1       21 0.28264140E-01 0.45427847E+03</pdfrwt>
<pdfrwt beam="2">  1       21 0.39475779E-01 0.45427847E+03</pdfrwt>
<totfact> 0.68527811E+04</totfact>
</mgrwt>
</event>
<event>
 7    0  0.4709932E-002  0.4555106E+03  0.7546771E-02  0.1026091E+00
         21   -1    0    0  502  501  0.00000000000E+00  0.00000000000E+00  0.54127715746E+02  0.54127715746E+02  0.00000000000E+00 0. -1.
         21   -1    0    0  501  502 -0.00000000000E+00 -0.00000000000E+00 -0.95833480236E+03  0.95833480236E+03  0.00000000000E+00 0. -1.
      99926    2    1    2    0    0  0.00000000000E+00  0.00000000000E+00 -0.90420708662E+03  0.10124625181E+04  0.45551058724E+03 0.  0.
      99925    2    3    3    0    0 -0.56116626613E+02  0.92626948031E+02 -0.49229199788E+03  0.56855895233E+03  0.26301909401E+03 0.  0.
         25    1    3    3    0    0  0.56116626613E+02 -0.92626948031E+02 -0.41191508874E+03  0.44390356578E+03  0.12509000000E+03 0.  0.
         25    1    4    4    0    0 -0.67505300044E+02  0.58073124206E+02 -0.24752044765E+03  0.29127878981E+03  0.12509000000E+03 0.  0.
         25    1    4    4    0    0  0.11388673431E+02  0.34553823825E+02 -0.24477155023E+03  0.27728016251E+03  0.12509000000E+03 0.  0.
<mgrwt>
<rscale>  2 0.45551059E+03</rscale>
<asrwt>0</asrwt>
<pdfrwt beam="1">  1       21 0.79599584E-02 0.45551059E+03</pdfrwt>
<pdfrwt beam="2">  1       21 0.14093159E+00 0.45551059E+03</pdfrwt>
<totfact> 0.38531662E+04</totfact>
</mgrwt>
</event>
<event>
 7    0  0.4709932E-002  0.4544747E+03  0.7546771E-02  0.1026396E+00
         21   -1    0    0  502  501  0.00000000000E+00  0.00000000000E+00  0.40613559291E+03  0.40613559291E+03  0.00000000000E+00 0.  1.
         21   -1    0    0  501  502 -0.00000000000E+00 -0.00000000000E+00 -0.12714178992E+03  0.12714178992E+03  0.00000000000E+00 0.  1.
      99926    2    1    2    0    0  0.00000000000E+00  0.00000000000E+00  0.27899380299E+03  0.53327738283E+03  0.45447466918E+03 0.  0.
      99925    2    3    3    0    0  0.46160797256E+02  0.10198505409E+03  0.16137728077E+03  0.32830683651E+03  0.26307980099E+03 0.  0.
         25    1    3    3    0    0 -0.46160797256E+02 -0.10198505409E+03  0.11761652222E+03  0.20497054632E+03  0.12509000000E+03 0.  0.
         25    1    4    4    0    0  0.35313916309E+00  0.78658239055E+02  0.10748847037E+03  0.18272526547E+03  0.12509000000E+03 0.  0.
         25    1    4    4    0    0  0.45807658093E+02  0.23326815033E+02  0.53888810403E+02  0.14558157104E+03  0.12509000000E+03 0.  0.
<mgrwt>
<rscale>  2 0.45447467E+03</rscale>
<asrwt>0</asrwt>
<pdfrwt beam="1">  1       21 0.59725822E-01 0.45447467E+03</pdfrwt>
<pdfrwt beam="2">  1       21 0.18697322E-01 0.45447467E+03</pdfrwt>
<totfact> 0.63247847E+04</totfact>
</mgrwt>
</event>
<event>
 7    0  0.4709932E-002  0.4599810E+03  0.7546771E-02  0.1024787E+00
         21   -1    0    0  502  501  0.00000000000E+00  0.00000000000E+00  0.19331068310E+03  0.19331068310E+03  0.00000000000E+00 0. -1.
         21   -1    0    0  501  502 -0.00000000000E+00 -0.00000000000E+00 -0.27363018065E+03  0.27363018065E+03  0.00000000000E+00 0. -1.
      99926    2    1    2    0    0  0.14210854715E-13  0.00000000000E+00 -0.80319497553E+02  0.46694086375E+03  0.45998103064E+03 0.  0.
      99925    2    3    3    0    0 -0.10920149351E+03  0.44238281659E+02 -0.48737028755E+02  0.29222122494E+03  0.26293716851E+03 0.  0.
         25    1    4    4    0    0 -0.24286683777E+02 -0.90812839250E+01 -0.18556240329E+02  0.12908971641E+03  0.12509000000E+03 0.  0.
         25    1    3    3    0    0  0.10920149351E+03 -0.44238281659E+02 -0.31582468798E+02  0.17471963881E+03  0.12509000000E+03 0.  0.
         25    1    4    4    0    0 -0.84914809738E+02  0.53319565584E+02 -0.30180788426E+02  0.16313150853E+03  0.12509000000E+03 0.  0.
<mgrwt>
<rscale>  2 0.45998103E+03</rscale>
<asrwt>0</asrwt>
<pdfrwt beam="1">  1       21 0.28428042E-01 0.45998103E+03</pdfrwt>
<pdfrwt beam="2">  1       21 0.40239732E-01 0.45998103E+03</pdfrwt>
<totfact> 0.65052080E+04</totfact>
</mgrwt>
</event>
<event>
 7    0  0.4709932E-002  0.4719532E+03  0.7546771E-02  0.1021370E+00
         21   -1    0    0  502  501  0.00000000000E+00  0.00000000000E+00  0.69042562010E+02  0.69042562010E+02  0.00000000000E+00 0. -1.
         21   -1    0    0  501  502 -0.00000000000E+00 -0.00000000000E+00 -0.80653097143E+03  0.80653097143E+03  0.00000000000E+00 0. -1.
      99926    2    1    2    0    0  0.00000000000E+00 -0.17763568394E-14 -0.73748840942E+03  0.87557353344E+03  0.47195323755E+03 0.  0.
      99925    2    3    3    0    0  0.11169298829E+03 -0.14349106959E+02 -0.57197737971E+03  0.63951712162E+03  0.26295019575E+03 0.  0.
         25    1    4    4    0    0  0.96997114786E+02 -0.17840327263E+02 -0.29609169260E+03  0.33622093344E+03  0.12509000000E+03 0.  0.
         25    1    3    3    0    0 -0.11169298829E+03  0.14349106959E+02 -0.16551102971E+03  0.23605641182E+03  0.12509000000E+03 0.  0.
         25    1    4    4    0    0  0.14695873505E+02  0.34912203035E+01 -0.27588568711E+03  0.30329618818E+03  0.12509000000E+03 0.  0.
<mgrwt>
<rscale>  2 0.47195324E+03</rscale>
<asrwt>0</asrwt>
<pdfrwt beam="1">  1       21 0.10153318E-01 0.47195324E+03</pdfrwt>
<pdfrwt beam="2">  1       21 0.11860750E+00 0.47195324E+03</pdfrwt>
<totfact> 0.38880850E+04</totfact>
</mgrwt>
</event>
<event>
 7    0  0.4709932E-002  0.4490623E+03  0.7546771E-02  0.1028002E+00
         21   -1    0    0  502  501  0.00000000000E+00  0.00000000000E+00  0.53461150483E+03  0.53461150483E+03  0.00000000000E+00 0. -1.
         21   -1    0    0  501  502 -0.00000000000E+00 -0.00000000000E+00 -0.94300687954E+02  0.94300687954E+02  0.00000000000E+00 0. -1.
      99926    2    1    2    0    0  0.00000000000E+00  0.71054273576E-14  0.44031081688E+03  0.62891219279E+03  0.44906227939E+03 0.  0.
      99925    2    3    3    0    0  0.82773326571E+02  0.63556224398E+02  0.24232711575E+03  0.37252211641E+03  0.26298189850E+03 0.  0.
         25    1    3    3    0    0 -0.82773326571E+02 -0.63556224398E+02  0.19798370112E+03  0.25639007637E+03  0.12509000000E+03 0.  0.
         25    1    4    4    0    0  0.54963389818E+02 -0.46338308256E+01  0.13368056389E+03  0.19120786560E+03  0.12509000000E+03 0.  0.
         25    1    4    4    0    0  0.27809936753E+02  0.68190055224E+02  0.10864655187E+03  0.18131425081E+03  0.12509000000E+03 0.  0.
<mgrwt>
<rscale>  2 0.44906228E+03</rscale>
<asrwt>0</asrwt>
<pdfrwt beam="1">  1       21 0.78619337E-01 0.44906228E+03</pdfrwt>
<pdfrwt beam="2">  1       21 0.13867749E-01 0.44906228E+03</pdfrwt>
<totfact> 0.59681631E+04</totfact>
</mgrwt>
</event>
<event>
 7    0  0.4709932E-002  0.4487686E+03  0.7546771E-02  0.1028090E+00
         21   -1    0    0  502  501  0.00000000000E+00  0.00000000000E+00  0.20081477733E+04  0.20081477733E+04  0.00000000000E+00 0. -1.
         21   -1    0    0  501  502 -0.00000000000E+00 -0.00000000000E+00 -0.25072020972E+02  0.25072020972E+02  0.00000000000E+00 0. -1.
      99926    2    1    2    0    0  0.00000000000E+00 -0.14210854715E-13  0.19830757523E+04  0.20332197943E+04  0.44876864011E+03 0.  0.
      99925    2    3    3    0    0 -0.75700332709E+02  0.75460701118E+02  0.12934071601E+04  0.13241957235E+04  0.26299690958E+03 0.  0.
         25    1    3    3    0    0  0.75700332709E+02 -0.75460701118E+02  0.68966859222E+03  0.70902407080E+03  0.12509000000E+03 0.  0.
         25    1    4    4    0    0 -0.12755347566E+02  0.29675047228E+02  0.75599539370E+03  0.76695492092E+03  0.12509000000E+03 0.  0.
         25    1    4    4    0    0 -0.62944985142E+02  0.45785653889E+02  0.53741176641E+03  0.55724080256E+03  0.12509000000E+03 0.  0.
<mgrwt>
<rscale>  2 0.44876864E+03</rscale>
<asrwt>0</asrwt>
<pdfrwt beam="1">  1       21 0.29531574E+00 0.44876864E+03</pdfrwt>
<pdfrwt beam="2">  1       21 0.36870633E-02 0.44876864E+03</pdfrwt>
<totfact> 0.13831987E+04</totfact>
</mgrwt>
</event>
<event>
 7    0  0.4709932E-002  0.4575365E+03  0.7546771E-02  0.1025498E+00
         21   -1    0    0  502  501  0.00000000000E+00  0.00000000000E+00  0.60598689499E+02  0.60598689499E+02  0.00000000000E+00 0. -1.
         21   -1    0    0  501  502 -0.00000000000E+00 -0.00000000000E+00 -0.86363093362E+03  0.86363093362E+03  0.00000000000E+00 0. -1.
      99926    2    1    2    0    0  0.17763568394E-14  0.28421709430E-13 -0.80303224412E+03  0.92422962312E+03  0.45753645882E+03 0.  0.
      99925    2    3    3    0    0  0.15248238280E+02  0.98732596223E+02 -0.62092512509E+03  0.68176076898E+03  0.26319023694E+03 0.  0.
         25    1    4    4    0    0  0.10656004482E+01  0.88939484313E+02 -0.37809097208E+03  0.40805840102E+03  0.12509000000E+03 0.  0.
         25    1    3    3    0    0 -0.15248238280E+02 -0.98732596223E+02 -0.18210711903E+03  0.24246885414E+03  0.12509000000E+03 0.  0.
         25    1    4    4    0    0  0.14182637832E+02  0.97931119102E+01 -0.24283415301E+03  0.27370236796E+03  0.12509000000E+03 0.  0.
<mgrwt>
<rscale>  2 0.45753646E+03</rscale>
<asrwt>0</asrwt>
<pdfrwt beam="1">  1       21 0.89115722E-02 0.45753646E+03</pdfrwt>
<pdfrwt beam="2">  1       21 0.12700455E+00 0.45753646E+03</pdfrwt>
<totfact> 0.41375317E+04</totfact>
</mgrwt>
</event>
<event>
 7    0  0.4709932E-002  0.4611790E+03  0.7546771E-02  0.1024440E+00
         21   -1    0    0  502  501  0.00000000000E+00  0.00000000000E+00  0.50848288098E+02  0.50848288098E+02  0.00000000000E+00 0. -1.
         21   -1    0    0  501  502 -0.00000000000E+00 -0.00000000000E+00 -0.10456894832E+04  0.10456894832E+04  0.00000000000E+00 0. -1.
      99926    2    1    2    0    0  0.00000000000E+00  0.00000000000E+00 -0.99484119511E+03  0.10965377713E+04  0.46117901125E+03 0.  0.
      99925    2    3    3    0    0  0.78255242194E+02 -0.87517039724E+02 -0.57962498613E+03  0.64727713040E+03  0.26309588331E+03 0.  0.
         25    1    3    3    0    0 -0.78255242194E+02  0.87517039724E+02 -0.41521620898E+03  0.44926064091E+03  0.12509000000E+03 0.  0.
         25    1    4    4    0    0  0.24115752167E+02 -0.81692634787E+02 -0.28915588215E+03  0.32636465551E+03  0.12509000000E+03 0.  0.
         25    1    4    4    0    0  0.54139490027E+02 -0.58244049371E+01 -0.29046910398E+03  0.32091247489E+03  0.12509000000E+03 0.  0.
<mgrwt>
<rscale>  2 0.46117901E+03</rscale>
<asrwt>0</asrwt>
<pdfrwt beam="1">  1       21 0.74776902E-02 0.46117901E+03</pdfrwt>
<pdfrwt beam="2">  1       21 0.15377785E+00 0.46117901E+03</pdfrwt>
<totfact> 0.33948310E+04</totfact>
</mgrwt>
</event>
<event>
 7    0  0.4709932E-002  0.4255693E+03  0.7546771E-02  0.1035269E+00
         21   -1    0    0  502  501  0.00000000000E+00  0.00000000000E+00  0.20325777948E+03  0.20325777948E+03  0.00000000000E+00 0.  1.
         21   -1    0    0  501  502 -0.00000000000E+00 -0.00000000000E+00 -0.22275800708E+03  0.22275800708E+03  0.00000000000E+00 0.  1.
      99926    2    1    2    0    0  0.00000000000E+00  0.00000000000E+00 -0.19500227603E+02  0.42601578656E+03  0.42556925584E+03 0.  0.
      99925    2    3    3    0    0  0.29741429981E+02  0.41390563062E+02 -0.78217847737E+02  0.27873035489E+03  0.26263062971E+03 0.  0.
         25    1    4    4    0    0 -0.12648496373E+02  0.19346871039E+02 -0.78182770193E+01  0.12744771255E+03  0.12509000000E+03 0.  0.
         25    1    4    4    0    0  0.42389926353E+02  0.22043692023E+02 -0.70399570718E+02  0.15128264233E+03  0.12509000000E+03 0.  0.
         25    1    3    3    0    0 -0.29741429981E+02 -0.41390563062E+02  0.58717620134E+02  0.14728543167E+03  0.12509000000E+03 0.  0.
<mgrwt>
<rscale>  2 0.42556926E+03</rscale>
<asrwt>0</asrwt>
<pdfrwt beam="1">  1       21 0.29890850E-01 0.42556926E+03</pdfrwt>
<pdfrwt beam="2">  1       21 0.32758530E-01 0.42556926E+03</pdfrwt>
<totfact> 0.90092542E+04</totfact>
</mgrwt>
</event>
<event>
 7    0  0.4709932E-002  0.4543962E+03  0.7546771E-02  0.1026419E+00
         21   -1    0    0  502  501  0.00000000000E+00  0.00000000000E+00  0.82290421557E+03  0.82290421557E+03  0.00000000000E+00 0.  1.
         21   -1    0    0  501  502 -0.00000000000E+00 -0.00000000000E+00 -0.62727806613E+02  0.62727806613E+02  0.00000000000E+00 0.  1.
      99926    2    1    2    0    0  0.00000000000E+00  0.00000000000E+00  0.76017640895E+03  0.88563202218E+03  0.45439619935E+03 0.  0.
      99925    2    3    3    0    0  0.85098268242E+02  0.95862227799E+01  0.33424423073E+03  0.43352657046E+03  0.26247375221E+03 0.  0.
         25    1    4    4    0    0  0.69406452353E+01 -0.57995169775E+01  0.18165862305E+03  0.22074684682E+03  0.12509000000E+03 0.  0.
         25    1    4    4    0    0  0.78157623007E+02  0.15385739757E+02  0.15258560768E+03  0.21277972364E+03  0.12509000000E+03 0.  0.
         25    1    3    3    0    0 -0.85098268242E+02 -0.95862227799E+01  0.42593217822E+03  0.45210545172E+03  0.12509000000E+03 0.  0.
<mgrwt>
<rscale>  2 0.45439620E+03</rscale>
<asrwt>0</asrwt>
<pdfrwt beam="1">  1       21 0.12101532E+00 0.45439620E+03</pdfrwt>
<pdfrwt beam="2">  1       21 0.92246780E-02 0.45439620E+03</pdfrwt>
<totfact> 0.44068765E+04</totfact>
</mgrwt>
</event>
<event>
 7    0  0.4709932E-002  0.4553810E+03  0.7546771E-02  0.1026129E+00
         21   -1    0    0  502  501  0.00000000000E+00  0.00000000000E+00  0.72145309353E+02  0.72145309353E+02  0.00000000000E+00 0.  1.
         21   -1    0    0  501  502 -0.00000000000E+00 -0.00000000000E+00 -0.71859087677E+03  0.71859087677E+03  0.00000000000E+00 0.  1.
      99926    2    1    2    0    0  0.14210854715E-13  0.00000000000E+00 -0.64644556742E+03  0.79073618612E+03  0.45538098820E+03 0.  0.
      99925    2    3    3    0    0 -0.68834830990E+02 -0.42620773793E+02 -0.26827460439E+03  0.38426902916E+03  0.26293850820E+03 0.  0.
         25    1    4    4    0    0 -0.13527349850E+02  0.11088780441E+02 -0.14647368826E+03  0.19341147768E+03  0.12509000000E+03 0.  0.
         25    1    3    3    0    0  0.68834830990E+02  0.42620773793E+02 -0.37817096303E+03  0.40646715697E+03  0.12509000000E+03 0.  0.
         25    1    4    4    0    0 -0.55307481139E+02 -0.53709554235E+02 -0.12180091614E+03  0.19085755148E+03  0.12509000000E+03 0.  0.
<mgrwt>
<rscale>  2 0.45538099E+03</rscale>
<asrwt>0</asrwt>
<pdfrwt beam="1">  1       21 0.10609605E-01 0.45538099E+03</pdfrwt>
<pdfrwt beam="2">  1       21 0.10567513E+00 0.45538099E+03</pdfrwt>
<totfact> 0.48072267E+04</totfact>
</mgrwt>
</event>
<event>
 7    0  0.4709932E-002  0.4479851E+03  0.7546771E-02  0.1028325E+00
         21   -1    0    0  502  501  0.00000000000E+00  0.00000000000E+00  0.25773714633E+04  0.25773714633E+04  0.00000000000E+00 0. -1.
         21   -1    0    0  501  502 -0.00000000000E+00 -0.00000000000E+00 -0.19466605352E+02  0.19466605352E+02  0.00000000000E+00 0. -1.
      99926    2    1    2    0    0  0.00000000000E+00  0.00000000000E+00  0.25579048580E+04  0.25968380687E+04  0.44798514762E+03 0.  0.
      99925    2    3    3    0    0 -0.71074502442E+02 -0.72926148911E+02  0.18020756454E+04  0.18239893676E+04  0.26285123787E+03 0.  0.
         25    1    3    3    0    0  0.71074502442E+02  0.72926148911E+02  0.75582921254E+03  0.77284870106E+03  0.12509000000E+03 0.  0.
         25    1    4    4    0    0 -0.27588945320E+02 -0.76164797422E+02  0.90628310170E+03  0.91845456871E+03  0.12509000000E+03 0.  0.
         25    1    4    4    0    0 -0.43485557122E+02  0.32386485113E+01  0.89579254374E+03  0.90553479891E+03  0.12509000000E+03 0.  0.
<mgrwt>
<rscale>  2 0.44798515E+03</rscale>
<asrwt>0</asrwt>
<pdfrwt beam="1">  1       21 0.37902498E+00 0.44798515E+03</pdfrwt>
<pdfrwt beam="2">  1       21 0.28627379E-02 0.44798515E+03</pdfrwt>
<totfact> 0.65404536E+03</totfact>
</mgrwt>
</event>
<event>
 7    0  0.4709932E-002  0.4491949E+03  0.7546771E-02  0.1027962E+00
         21   -1    0    0  502  501  0.00000000000E+00  0.00000000000E+00  0.10846345760E+04  0.10846345760E+04  0.00000000000E+00 0. -1.
         21   -1    0    0  501  502 -0.00000000000E+00 -0.00000000000E+00 -0.46507845782E+02  0.46507845782E+02  0.00000000000E+00 0. -1.
      99926    2    1    2    0    0  0.00000000000E+00  0.71054273576E-14  0.10381267302E+04  0.11311424218E+04  0.44919491356E+03 0.  0.
      99925    2    3    3    0    0 -0.95325932875E+02  0.36797390940E+02  0.74085952396E+03  0.79282839388E+03  0.26317854481E+03 0.  0.
         25    1    4    4    0    0 -0.63682456822E+01  0.29325952014E+02  0.33910522815E+03  0.36268502846E+03  0.12509000000E+03 0.  0.
         25    1    4    4    0    0 -0.88957687192E+02  0.74714389258E+01  0.40175429581E+03  0.43014336542E+03  0.12509000000E+03 0.  0.
         25    1    3    3    0    0  0.95325932875E+02 -0.36797390940E+02  0.29726720628E+03  0.33831402792E+03  0.12509000000E+03 0.  0.
<mgrwt>
<rscale>  2 0.44919491E+03</rscale>
<asrwt>0</asrwt>
<pdfrwt beam="1">  1       21 0.15950507E+00 0.44919491E+03</pdfrwt>
<pdfrwt beam="2">  1       21 0.68393898E-02 0.44919491E+03</pdfrwt>
<totfact> 0.36020872E+04</totfact>
</mgrwt>
</event>
<event>
 7    0  0.4709932E-002  0.4528363E+03  0.7546771E-02  0.1026880E+00
         21   -1    0    0  502  501  0.00000000000E+00  0.00000000000E+00  0.12328481641E+03  0.12328481641E+03  0.00000000000E+00 0. -1.
         21   -1    0    0  501  502 -0.00000000000E+00 -0.00000000000E+00 -0.41582717832E+03  0.41582717832E+03  0.00000000000E+00 0. -1.
      99926    2    1    2    0    0  0.00000000000E+00  0.00000000000E+00 -0.29254236191E+03  0.53911199472E+03  0.45283629420E+03 0.  0.
      99925    2    3    3    0    0  0.68900461239E+02 -0.47122565023E+02 -0.97088946821E+02  0.29250024467E+03  0.26298729978E+03 0.  0.
         25    1    4    4    0    0  0.15994222329E+00 -0.46154357622E+00 -0.34080788323E+02  0.12965047951E+03  0.12509000000E+03 0.  0.
         25    1    3    3    0    0 -0.68900461239E+02  0.47122565023E+02 -0.19545341509E+03  0.24661175005E+03  0.12509000000E+03 0.  0.
         25    1    4    4    0    0  0.68740519015E+02 -0.46661021446E+02 -0.63008158498E+02  0.16284976516E+03  0.12509000000E+03 0.  0.
<mgrwt>
<rscale>  2 0.45283629E+03</rscale>
<asrwt>0</asrwt>
<pdfrwt beam="1">  1       21 0.18130120E-01 0.45283629E+03</pdfrwt>
<pdfrwt beam="2">  1       21 0.61151057E-01 0.45283629E+03</pdfrwt>
<totfact> 0.63675155E+04</totfact>
</mgrwt>
</event>
<event>
 7    0  0.4709932E-002  0.3931791E+03  0.7546771E-02  0.1046167E+00
         21   -1    0    0  502  501  0.00000000000E+00  0.00000000000E+00  0.13952260549E+03  0.13952260549E+03  0.00000000000E+00 0.  1.
         21   -1    0    0  501  502 -0.00000000000E+00 -0.00000000000E+00 -0.27699773306E+03  0.27699773306E+03  0.00000000000E+00 0.  1.
      99926    2    1    2    0    0  0.00000000000E+00 -0.35527136788E-14 -0.13747512757E+03  0.41652033855E+03  0.39317907082E+03 0.  0.
      99925    2    3    3    0    0  0.20537953266E+02 -0.15885808530E+02 -0.77604313792E+02  0.27543104456E+03  0.26299365839E+03 0.  0.
         25    1    4    4    0    0 -0.13444765473E+02 -0.22392286989E+02 -0.77089824984E+01  0.12801997011E+03  0.12509000000E+03 0.  0.
         25    1    4    4    0    0  0.33982718740E+02  0.65064784593E+01 -0.69895331294E+02  0.14741107445E+03  0.12509000000E+03 0.  0.
         25    1    3    3    0    0 -0.20537953266E+02  0.15885808530E+02 -0.59870813779E+02  0.14108929399E+03  0.12509000000E+03 0.  0.
<mgrwt>
<rscale>  2 0.39317907E+03</rscale>
<asrwt>0</asrwt>
<pdfrwt beam="1">  1       21 0.20518030E-01 0.39317907E+03</pdfrwt>
<pdfrwt beam="2">  1       21 0.40734961E-01 0.39317907E+03</pdfrwt>
<totfact> 0.12091406E+05</totfact>
</mgrwt>
</event>
<event>
 7    0  0.4709932E-002  0.4609837E+03  0.7546771E-02  0.1024496E+00
         21   -1    0    0  502  501  0.00000000000E+00  0.00000000000E+00  0.95481163570E+03  0.95481163570E+03  0.00000000000E+00 0.  1.
         21   -1    0    0  501  502 -0.00000000000E+00 -0.00000000000E+00 -0.55640803995E+02  0.55640803995E+02  0.00000000000E+00 0.  1.
      99926    2    1    2    0    0  0.00000000000E+00  0.00000000000E+00  0.89917083170E+03  0.10104524397E+04  0.46098367465E+03 0.  0.
      99925    2    3    3    0    0 -0.58890285844E+01  0.26516752531E+02  0.81616082428E+03  0.85788773783E+03  0.26289743400E+03 0.  0.
         25    1    4    4    0    0 -0.20061397937E+02 -0.74313236634E+01  0.30476547322E+03  0.33013207361E+03  0.12509000000E+03 0.  0.
         25    1    4    4    0    0  0.14172369353E+02  0.33948076195E+02  0.51139535106E+03  0.52775566422E+03  0.12509000000E+03 0.  0.
         25    1    3    3    0    0  0.58890285844E+01 -0.26516752531E+02  0.83010007423E+02  0.15256470186E+03  0.12509000000E+03 0.  0.
<mgrwt>
<rscale>  2 0.46098367E+03</rscale>
<asrwt>0</asrwt>
<pdfrwt beam="1">  1       21 0.14041347E+00 0.46098367E+03</pdfrwt>
<pdfrwt beam="2">  1       21 0.81824718E-02 0.46098367E+03</pdfrwt>
<totfact> 0.37003217E+04</totfact>
</mgrwt>
</event>
<event>
 7    0  0.4709932E-002  0.4511724E+03  0.7546771E-02  0.1027373E+00
         21   -1    0    0  502  501  0.00000000000E+00  0.00000000000E+00  0.11430303132E+04  0.11430303132E+04  0.00000000000E+00 0. -1.
         21   -1    0    0  501  502 -0.00000000000E+00 -0.00000000000E+00 -0.44521249784E+02  0.44521249784E+02  0.00000000000E+00 0. -1.
      99926    2    1    2    0    0 -0.44408920985E-15  0.00000000000E+00  0.10985090634E+04  0.11875515630E+04  0.45117241975E+03 0.  0.
      99925    2    3    3    0    0  0.20528262097E+01  0.97523754123E+02  0.82483226616E+03  0.87122642303E+03  0.26300592422E+03 0.  0.
         25    1    3    3    0    0 -0.20528262097E+01 -0.97523754123E+02  0.27367679728E+03  0.31632513998E+03  0.12509000000E+03 0.  0.
         25    1    4    4    0    0 -0.74693160542E+01  0.85549387587E+02  0.38913666125E+03  0.41767132727E+03  0.12509000000E+03 0.  0.
         25    1    4    4    0    0  0.95221422639E+01  0.11974366536E+02  0.43569560491E+03  0.45355509575E+03  0.12509000000E+03 0.  0.
<mgrwt>
<rscale>  2 0.45117242E+03</rscale>
<asrwt>0</asrwt>
<pdfrwt beam="1">  1       21 0.16809267E+00 0.45117242E+03</pdfrwt>
<pdfrwt beam="2">  1       21 0.65472434E-02 0.45117242E+03</pdfrwt>
<totfact> 0.33542123E+04</totfact>
</mgrwt>
</event>
<event>
 7    0  0.4709932E-002  0.4452905E+03  0.7546771E-02  0.1029136E+00
         21   -1    0    0  502  501  0.00000000000E+00  0.00000000000E+00  0.41066866321E+02  0.41066866321E+02  0.00000000000E+00 0.  1.
         21   -1    0    0  501  502 -0.00000000000E+00 -0.00000000000E+00 -0.12070778930E+04  0.12070778930E+04  0.00000000000E+00 0.  1.
      99926    2    1    2    0    0  0.00000000000E+00  0.00000000000E+00 -0.11660110267E+04  0.12481447594E+04  0.44529049607E+03 0.  0.
      99925    2    3    3    0    0  0.52861616321E+02  0.50656075932E+02 -0.94662289670E+03  0.98520170811E+03  0.26299640415E+03 0.  0.
         25    1    4    4    0    0  0.37251288324E+02 -0.12784335470E+02 -0.49203464502E+03  0.50921183973E+03  0.12509000000E+03 0.  0.
         25    1    3    3    0    0 -0.52861616321E+02 -0.50656075932E+02 -0.21938813002E+03  0.26294305126E+03  0.12509000000E+03 0.  0.
         25    1    4    4    0    0  0.15610327997E+02  0.63440411401E+02 -0.45458825167E+03  0.47598986838E+03  0.12509000000E+03 0.  0.
<mgrwt>
<rscale>  2 0.44529050E+03</rscale>
<asrwt>0</asrwt>
<pdfrwt beam="1">  1       21 0.60392452E-02 0.44529050E+03</pdfrwt>
<pdfrwt beam="2">  1       21 0.17751145E+00 0.44529050E+03</pdfrwt>
<totfact> 0.33089344E+04</totfact>
</mgrwt>
</event>
<event>
 7    0  0.4709932E-002  0.4535802E+03  0.7546771E-02  0.1026660E+00
         21   -1    0    0  502  501  0.00000000000E+00  0.00000000000E+00  0.10553837390E+03  0.10553837390E+03  0.00000000000E+00 0.  1.
         21   -1    0    0  501  502 -0.00000000000E+00 -0.00000000000E+00 -0.48734650906E+03  0.48734650906E+03  0.00000000000E+00 0.  1.
      99926    2    1    2    0    0 -0.14210854715E-13  0.35527136788E-14 -0.38180813516E+03  0.59288488295E+03  0.45358023806E+03 0.  0.
      99925    2    3    3    0    0 -0.10942931581E+03  0.13291437013E+02 -0.26541985372E+03  0.38954974675E+03  0.26296362675E+03 0.  0.
         25    1    4    4    0    0 -0.29139197580E+02 -0.26575312558E+02 -0.12673605056E+03  0.18238660774E+03  0.12509000000E+03 0.  0.
         25    1    3    3    0    0  0.10942931581E+03 -0.13291437013E+02 -0.11638828144E+03  0.20333513620E+03  0.12509000000E+03 0.  0.
         25    1    4    4    0    0 -0.80290118227E+02  0.39866749571E+02 -0.13868380316E+03  0.20716313901E+03  0.12509000000E+03 0.  0.
<mgrwt>
<rscale>  2 0.45358024E+03</rscale>
<asrwt>0</asrwt>
<pdfrwt beam="1">  1       21 0.15520349E-01 0.45358024E+03</pdfrwt>
<pdfrwt beam="2">  1       21 0.71668605E-01 0.45358024E+03</pdfrwt>
<totfact> 0.59786363E+04</totfact>
</mgrwt>
</event>
<event>
 7    0  0.4709932E-002  0.4554364E+03  0.7546771E-02  0.1026113E+00
         21   -1    0    0  502  501  0.00000000000E+00  0.00000000000E+00  0.67509315743E+03  0.67509315743E+03  0.00000000000E+00 0.  1.
         21   -1    0    0  501  502 -0.00000000000E+00 -0.00000000000E+00 -0.76812468817E+02  0.76812468817E+02  0.00000000000E+00 0.  1.
      99926    2    1    2    0    0 -0.14210854715E-13  0.00000000000E+00  0.59828068861E+03  0.75190562624E+03  0.45543637142E+03 0.  0.
      99925    2    3    3    0    0  0.86978598266E+02 -0.70382320052E+02  0.34352746548E+03  0.44683897725E+03  0.26293536187E+03 0.  0.
         25    1    4    4    0    0  0.81069403930E+02 -0.18760376328E+02  0.18524847815E+03  0.23851353574E+03  0.12509000000E+03 0.  0.
         25    1    4    4    0    0  0.59091943357E+01 -0.51621943724E+02  0.15827898733E+03  0.20832544152E+03  0.12509000000E+03 0.  0.
         25    1    3    3    0    0 -0.86978598266E+02  0.70382320052E+02  0.25475322312E+03  0.30506664899E+03  0.12509000000E+03 0.  0.
<mgrwt>
<rscale>  2 0.45543637E+03</rscale>
<asrwt>0</asrwt>
<pdfrwt beam="1">  1       21 0.99278403E-01 0.45543637E+03</pdfrwt>
<pdfrwt beam="2">  1       21 0.11295952E-01 0.45543637E+03</pdfrwt>
<totfact> 0.50002076E+04</totfact>
</mgrwt>
</event>
<event>
 6    0  0.4709932E-002  0.4588286E+03  0.7546771E-02  0.1025122E+00
         21   -1    0    0  502  501  0.00000000000E+00  0.00000000000E+00  0.78838426454E+02  0.78838426454E+02  0.00000000000E+00 0.  1.
         21   -1    0    0  501  502 -0.00000000000E+00 -0.00000000000E+00 -0.66757947067E+03  0.66757947067E+03  0.00000000000E+00 0.  1.
      99926    2    1    2    0    0  0.35527136788E-14  0.00000000000E+00 -0.58874104422E+03  0.74641789713E+03  0.45882857366E+03 0.  0.
         25    1    3    3    0    0  0.97115047743E+01 -0.81827645598E+02 -0.11080514664E+03  0.18632059878E+03  0.12509000000E+03 0.  0.
         25    1    3    3    0    0  0.27894703712E+02  0.89094918694E+02 -0.31133013902E+03  0.34826711385E+03  0.12509000000E+03 0.  0.
         25    1    3    3    0    0 -0.37606208486E+02 -0.72672730963E+01 -0.16660575856E+03  0.21183018449E+03  0.12509000000E+03 0.  0.
<mgrwt>
<rscale>  2 0.45882857E+03</rscale>
<asrwt>0</asrwt>
<pdfrwt beam="1">  1       21 0.11593885E-01 0.45882857E+03</pdfrwt>
<pdfrwt beam="2">  1       21 0.98173463E-01 0.45882857E+03</pdfrwt>
<totfact> 0.48963935E+04</totfact>
</mgrwt>
</event>
<event>
 7    0  0.4709932E-002  0.4517998E+03  0.7546771E-02  0.1027187E+00
         21   -1    0    0  502  501  0.00000000000E+00  0.00000000000E+00  0.16431737432E+02  0.16431737432E+02  0.00000000000E+00 0.  1.
         21   -1    0    0  501  502 -0.00000000000E+00 -0.00000000000E+00 -0.31056214522E+04  0.31056214522E+04  0.00000000000E+00 0.  1.
      99926    2    1    2    0    0  0.00000000000E+00  0.00000000000E+00 -0.30891897148E+04  0.31220531896E+04  0.45179976213E+03 0.  0.
      99925    2    3    3    0    0 -0.46763017084E+02 -0.14739403302E+02 -0.12677890807E+04  0.12957038781E+04  0.26297406118E+03 0.  0.
         25    1    4    4    0    0 -0.27082828735E+02 -0.36253656125E+02 -0.50764506888E+03  0.52478455699E+03  0.12509000000E+03 0.  0.
         25    1    4    4    0    0 -0.19680188349E+02  0.21514252823E+02 -0.76014401182E+03  0.77091932113E+03  0.12509000000E+03 0.  0.
         25    1    3    3    0    0  0.46763017084E+02  0.14739403302E+02 -0.18214006341E+04  0.18263493115E+04  0.12509000000E+03 0.  0.
<mgrwt>
<rscale>  2 0.45179976E+03</rscale>
<asrwt>0</asrwt>
<pdfrwt beam="1">  1       21 0.24164297E-02 0.45179976E+03</pdfrwt>
<pdfrwt beam="2">  1       21 0.45670947E+00 0.45179976E+03</pdfrwt>
<totfact> 0.26897945E+03</totfact>
</mgrwt>
</event>
<event>
 7    0  0.4709932E-002  0.4516224E+03  0.7546771E-02  0.1027239E+00
         21   -1    0    0  502  501  0.00000000000E+00  0.00000000000E+00  0.54471275334E+03  0.54471275334E+03  0.00000000000E+00 0.  1.
         21   -1    0    0  501  502 -0.00000000000E+00 -0.00000000000E+00 -0.93610269409E+02  0.93610269409E+02  0.00000000000E+00 0.  1.
      99926    2    1    2    0    0  0.00000000000E+00  0.00000000000E+00  0.45110248394E+03  0.63832302275E+03  0.45162244227E+03 0.  0.
      99925    2    3    3    0    0  0.32369727032E+02 -0.34727987793E+02  0.14468519631E+03  0.30396857816E+03  0.26307652520E+03 0.  0.
         25    1    4    4    0    0  0.50852325868E+02 -0.32790811548E+02  0.57596939456E+02  0.15041978561E+03  0.12509000000E+03 0.  0.
         25    1    4    4    0    0 -0.18482598836E+02 -0.19371762447E+01  0.87088256856E+02  0.15354879255E+03  0.12509000000E+03 0.  0.
         25    1    3    3    0    0 -0.32369727032E+02  0.34727987793E+02  0.30641728762E+03  0.33435444459E+03  0.12509000000E+03 0.  0.
<mgrwt>
<rscale>  2 0.45162244E+03</rscale>
<asrwt>0</asrwt>
<pdfrwt beam="1">  1       21 0.80104815E-01 0.45162244E+03</pdfrwt>
<pdfrwt beam="2">  1       21 0.13766216E-01 0.45162244E+03</pdfrwt>
<totfact> 0.57907409E+04</totfact>
</mgrwt>
</event>
<event>
 7    0  0.4709932E-002  0.4568597E+03  0.7546771E-02  0.1025696E+00
         21   -1    0    0  502  501  0.00000000000E+00  0.00000000000E+00  0.33993613987E+03  0.33993613987E+03  0.00000000000E+00 0.  1.
         21   -1    0    0  501  502 -0.00000000000E+00 -0.00000000000E+00 -0.15349998370E+03  0.15349998370E+03  0.00000000000E+00 0.  1.
      99926    2    1    2    0    0 -0.14210854715E-13  0.00000000000E+00  0.18643615617E+03  0.49343612358E+03  0.45685968056E+03 0.  0.
      99925    2    3    3    0    0 -0.71666134342E+02  0.86613952881E+02  0.14277098707E+03  0.31967719075E+03  0.26300558909E+03 0.  0.
         25    1    4    4    0    0 -0.42344518239E+02  0.15299582267E+02  0.35084080982E+02  0.13749740463E+03  0.12509000000E+03 0.  0.
         25    1    4    4    0    0 -0.29321616104E+02  0.71314370614E+02  0.10768690609E+03  0.18217978612E+03  0.12509000000E+03 0.  0.
         25    1    3    3    0    0  0.71666134342E+02 -0.86613952881E+02  0.43665169101E+02  0.17375893283E+03  0.12509000000E+03 0.  0.
<mgrwt>
<rscale>  2 0.45685968E+03</rscale>
<asrwt>0</asrwt>
<pdfrwt beam="1">  1       21 0.49990609E-01 0.45685968E+03</pdfrwt>
<pdfrwt beam="2">  1       21 0.22573527E-01 0.45685968E+03</pdfrwt>
<totfact> 0.64772734E+04</totfact>
</mgrwt>
</event>
<event>
 7    0  0.4709932E-002  0.4493086E+03  0.7546771E-02  0.1027928E+00
         21   -1    0    0  502  501  0.00000000000E+00  0.00000000000E+00  0.30247504481E+03  0.30247504481E+03  0.00000000000E+00 0. -1.
         21   -1    0    0  501  502 -0.00000000000E+00 -0.00000000000E+00 -0.16685525192E+03  0.16685525192E+03  0.00000000000E+00 0. -1.
      99926    2    1    2    0    0 -0.14210854715E-13  0.00000000000E+00  0.13561979290E+03  0.46933029673E+03  0.44930857904E+03 0.  0.
      99925    2    3    3    0    0 -0.84140250755E+02 -0.18709569336E+02  0.16352362663E+02  0.27619340798E+03  0.26188884868E+03 0.  0.
         25    1    3    3    0    0  0.84140250755E+02  0.18709569336E+02  0.11926743023E+03  0.19313688875E+03  0.12509000000E+03 0.  0.
         25    1    4    4    0    0 -0.76430092502E+02  0.10520963801E+02  0.11324349614E+02  0.14740420182E+03  0.12509000000E+03 0.  0.
         25    1    4    4    0    0 -0.77101582527E+01 -0.29230533137E+02  0.50280130485E+01  0.12878920616E+03  0.12509000000E+03 0.  0.
<mgrwt>
<rscale>  2 0.44930858E+03</rscale>
<asrwt>0</asrwt>
<pdfrwt beam="1">  1       21 0.44481624E-01 0.44930858E+03</pdfrwt>
<pdfrwt beam="2">  1       21 0.24537537E-01 0.44930858E+03</pdfrwt>
<totfact> 0.70621207E+04</totfact>
</mgrwt>
</event>
<event>
 7    0  0.4709932E-002  0.5039974E+03  0.7546771E-02  0.1012741E+00
         21   -1    0    0  502  501  0.00000000000E+00  0.00000000000E+00  0.17592671901E+03  0.17592671901E+03  0.00000000000E+00 0. -1.
         21   -1    0    0  501  502 -0.00000000000E+00 -0.00000000000E+00 -0.36096480400E+03  0.36096480400E+03  0.00000000000E+00 0. -1.
      99926    2    1    2    0    0  0.00000000000E+00  0.14210854715E-13 -0.18503808499E+03  0.53689152301E+03  0.50399743509E+03 0.  0.
      99925    2    3    3    0    0  0.10069907248E+02 -0.12331432283E+03 -0.13171377117E+02  0.29093726177E+03  0.26298893487E+03 0.  0.
         25    1    3    3    0    0 -0.10069907248E+02  0.12331432283E+03 -0.17186670787E+03  0.24595426124E+03  0.12509000000E+03 0.  0.
         25    1    4    4    0    0 -0.21554562247E+02 -0.83840590959E+02  0.15774522606E+02  0.15293850892E+03  0.12509000000E+03 0.  0.
         25    1    4    4    0    0  0.31624469495E+02 -0.39473731868E+02 -0.28945899723E+02  0.13799875285E+03  0.12509000000E+03 0.  0.
<mgrwt>
<rscale>  2 0.50399744E+03</rscale>
<asrwt>0</asrwt>
<pdfrwt beam="1">  1       21 0.25871577E-01 0.50399744E+03</pdfrwt>
<pdfrwt beam="2">  1       21 0.53083059E-01 0.50399744E+03</pdfrwt>
<totfact> 0.43301683E+04</totfact>
</mgrwt>
</event>
<event>
 7    0  0.4709932E-002  0.4474395E+03  0.7546771E-02  0.1028488E+00
         21   -1    0    0  502  501  0.00000000000E+00  0.00000000000E+00  0.65908955195E+02  0.65908955195E+02  0.00000000000E+00 0. -1.
         21   -1    0    0  501  502 -0.00000000000E+00 -0.00000000000E+00 -0.75938901169E+03  0.75938901169E+03  0.00000000000E+00 0. -1.
      99926    2    1    2    0    0  0.00000000000E+00  0.00000000000E+00 -0.69348005649E+03  0.82529796689E+03  0.44743954384E+03 0.  0.
      99925    2    3    3    0    0 -0.83684828375E+02 -0.63526227715E+02 -0.43280994227E+03  0.51766970314E+03  0.26385363994E+03 0.  0.
         25    1    4    4    0    0 -0.35635967880E+02  0.29141286525E+01 -0.15685092578E+03  0.20378453173E+03  0.12509000000E+03 0.  0.
         25    1    4    4    0    0 -0.48048860495E+02 -0.66440356367E+02 -0.27595901649E+03  0.31388517141E+03  0.12509000000E+03 0.  0.
         25    1    3    3    0    0  0.83684828375E+02  0.63526227715E+02 -0.26067011422E+03  0.30762826375E+03  0.12509000000E+03 0.  0.
<mgrwt>
<rscale>  2 0.44743954E+03</rscale>
<asrwt>0</asrwt>
<pdfrwt beam="1">  1       21 0.96924935E-02 0.44743954E+03</pdfrwt>
<pdfrwt beam="2">  1       21 0.11167485E+00 0.44743954E+03</pdfrwt>
<totfact> 0.49433276E+04</totfact>
</mgrwt>
</event>
<event>
 7    0  0.4709932E-002  0.4513387E+03  0.7546771E-02  0.1027324E+00
         21   -1    0    0  502  501  0.00000000000E+00  0.00000000000E+00  0.31298438425E+03  0.31298438425E+03  0.00000000000E+00 0.  1.
         21   -1    0    0  501  502 -0.00000000000E+00 -0.00000000000E+00 -0.16271305887E+03  0.16271305887E+03  0.00000000000E+00 0.  1.
      99926    2    1    2    0    0 -0.35527136788E-14  0.00000000000E+00  0.15027132539E+03  0.47569744312E+03  0.45133866016E+03 0.  0.
      99925    2    3    3    0    0 -0.27169157356E+02  0.10159106739E+03  0.61623141592E+02  0.28978101922E+03  0.26290058851E+03 0.  0.
         25    1    3    3    0    0  0.27169157356E+02 -0.10159106739E+03  0.88648183795E+02  0.18591642390E+03  0.12509000000E+03 0.  0.
         25    1    4    4    0    0  0.13708310744E+02  0.57811925891E+02  0.60407393904E+02  0.15108506841E+03  0.12509000000E+03 0.  0.
         25    1    4    4    0    0 -0.40877468100E+02  0.43779141501E+02  0.12157476887E+01  0.13869595081E+03  0.12509000000E+03 0.  0.
<mgrwt>
<rscale>  2 0.45133866E+03</rscale>
<asrwt>0</asrwt>
<pdfrwt beam="1">  1       21 0.46027115E-01 0.45133866E+03</pdfrwt>
<pdfrwt beam="2">  1       21 0.23928391E-01 0.45133866E+03</pdfrwt>
<totfact> 0.68997994E+04</totfact>
</mgrwt>
</event>
<event>
 7    0  0.4709932E-002  0.4667078E+03  0.7546771E-02  0.1022854E+00
         21   -1    0    0  502  501  0.00000000000E+00  0.00000000000E+00  0.12722636113E+03  0.12722636113E+03  0.00000000000E+00 0.  1.
         21   -1    0    0  501  502 -0.00000000000E+00 -0.00000000000E+00 -0.42800913455E+03  0.42800913455E+03  0.00000000000E+00 0.  1.
      99926    2    1    2    0    0  0.00000000000E+00  0.00000000000E+00 -0.30078277342E+03  0.55523549568E+03  0.46670780889E+03 0.  0.
      99925    2    3    3    0    0  0.29655026886E+02 -0.90344110847E+02 -0.28185055650E+03  0.39697174139E+03  0.26287896128E+03 0.  0.
         25    1    4    4    0    0 -0.19928887156E+02 -0.32825148040E+02 -0.15887612863E+03  0.20582464195E+03  0.12509000000E+03 0.  0.
         25    1    4    4    0    0  0.49583914042E+02 -0.57518962807E+02 -0.12297442787E+03  0.19114709944E+03  0.12509000000E+03 0.  0.
         25    1    3    3    0    0 -0.29655026886E+02  0.90344110847E+02 -0.18932216917E+02  0.15826375429E+03  0.12509000000E+03 0.  0.
<mgrwt>
<rscale>  2 0.46670781E+03</rscale>
<asrwt>0</asrwt>
<pdfrwt beam="1">  1       21 0.18709759E-01 0.46670781E+03</pdfrwt>
<pdfrwt beam="2">  1       21 0.62942520E-01 0.46670781E+03</pdfrwt>
<totfact> 0.56138677E+04</totfact>
</mgrwt>
</event>
<event>
 7    0  0.4709932E-002  0.4559046E+03  0.7546771E-02  0.1025976E+00
         21   -1    0    0  502  501  0.00000000000E+00  0.00000000000E+00  0.17989533380E+03  0.17989533380E+03  0.00000000000E+00 0. -1.
         21   -1    0    0  501  502 -0.00000000000E+00 -0.00000000000E+00 -0.28884711318E+03  0.28884711318E+03  0.00000000000E+00 0. -1.
      99926    2    1    2    0    0  0.00000000000E+00 -0.71054273576E-14 -0.10895177938E+03  0.46874244698E+03  0.45590458582E+03 0.  0.
      99925    2    3    3    0    0 -0.90287847143E+02  0.40107954150E+02 -0.98934836804E+01  0.28107093242E+03  0.26294950980E+03 0.  0.
         25    1    3    3    0    0  0.90287847143E+02 -0.40107954150E+02 -0.99058295703E+02  0.18767151456E+03  0.12509000000E+03 0.  0.
         25    1    4    4    0    0 -0.68487083634E+02  0.14575783391E+01 -0.32899346268E+02  0.14636420411E+03  0.12509000000E+03 0.  0.
         25    1    4    4    0    0 -0.21800763510E+02  0.38650375811E+02  0.23005862588E+02  0.13470672832E+03  0.12509000000E+03 0.  0.
<mgrwt>
<rscale>  2 0.45590459E+03</rscale>
<asrwt>0</asrwt>
<pdfrwt beam="1">  1       21 0.26455197E-01 0.45590459E+03</pdfrwt>
<pdfrwt beam="2">  1       21 0.42477516E-01 0.45590459E+03</pdfrwt>
<totfact> 0.67047090E+04</totfact>
</mgrwt>
</event>
<event>
 7    0  0.4709932E-002  0.4413564E+03  0.7546771E-02  0.1030331E+00
         21   -1    0    0  502  501  0.00000000000E+00  0.00000000000E+00  0.53312826245E+03  0.53312826245E+03  0.00000000000E+00 0.  1.
         21   -1    0    0  501  502 -0.00000000000E+00 -0.00000000000E+00 -0.91345479926E+02  0.91345479926E+02  0.00000000000E+00 0.  1.
      99926    2    1    2    0    0  0.71054273576E-14  0.00000000000E+00  0.44178278252E+03  0.62447374238E+03  0.44135635034E+03 0.  0.
      99925    2    3    3    0    0  0.60464968747E+02 -0.39234262109E+02  0.37920644467E+03  0.46712493899E+03  0.26308333504E+03 0.  0.
         25    1    3    3    0    0 -0.60464968747E+02  0.39234262109E+02  0.62576337851E+02  0.15734880339E+03  0.12509000000E+03 0.  0.
         25    1    4    4    0    0 -0.11336363766E+02 -0.18057698390E+02  0.18297772110E+03  0.22267228865E+03  0.12509000000E+03 0.  0.
         25    1    4    4    0    0  0.71801332513E+02 -0.21176563719E+02  0.19622872358E+03  0.24445265034E+03  0.12509000000E+03 0.  0.
<mgrwt>
<rscale>  2 0.44135635E+03</rscale>
<asrwt>0</asrwt>
<pdfrwt beam="1">  1       21 0.78401214E-01 0.44135635E+03</pdfrwt>
<pdfrwt beam="2">  1       21 0.13433159E-01 0.44135635E+03</pdfrwt>
<totfact> 0.63795421E+04</totfact>
</mgrwt>
</event>
<event>
 7    0  0.4709932E-002  0.4551705E+03  0.7546771E-02  0.1026191E+00
         21   -1    0    0  502  501  0.00000000000E+00  0.00000000000E+00  0.31991318401E+03  0.31991318401E+03  0.00000000000E+00 0.  1.
         21   -1    0    0  501  502 -0.00000000000E+00 -0.00000000000E+00 -0.16190345792E+03  0.16190345792E+03  0.00000000000E+00 0.  1.
      99926    2    1    2    0    0 -0.14210854715E-13  0.00000000000E+00  0.15800972609E+03  0.48181664192E+03  0.45517052068E+03 0.  0.
      99925    2    3    3    0    0 -0.98472645869E+02  0.27322022957E+02  0.15106387995E+03  0.32014070741E+03  0.26310914426E+03 0.  0.
         25    1    3    3    0    0  0.98472645869E+02 -0.27322022957E+02  0.69458461429E+01  0.16167593452E+03  0.12509000000E+03 0.  0.
         25    1    4    4    0    0 -0.55762851263E+02  0.51591279441E+02  0.62155247733E+02  0.15900295160E+03  0.12509000000E+03 0.  0.
         25    1    4    4    0    0 -0.42709794606E+02 -0.24269256483E+02  0.88908632213E+02  0.16113775581E+03  0.12509000000E+03 0.  0.
<mgrwt>
<rscale>  2 0.45517052E+03</rscale>
<asrwt>0</asrwt>
<pdfrwt beam="1">  1       21 0.47046057E-01 0.45517052E+03</pdfrwt>
<pdfrwt beam="2">  1       21 0.23809332E-01 0.45517052E+03</pdfrwt>
<totfact> 0.66478071E+04</totfact>
</mgrwt>
</event>
<event>
 7    0  0.4709932E-002  0.4650433E+03  0.7546771E-02  0.1023329E+00
         21   -1    0    0  502  501  0.00000000000E+00  0.00000000000E+00  0.33992830700E+03  0.33992830700E+03  0.00000000000E+00 0. -1.
         21   -1    0    0  501  502 -0.00000000000E+00 -0.00000000000E+00 -0.15905210463E+03  0.15905210463E+03  0.00000000000E+00 0. -1.
      99926    2    1    2    0    0 -0.14210854715E-13 -0.17763568394E-14  0.18087620237E+03  0.49898041163E+03  0.46504327821E+03 0.  0.
      99925    2    3    3    0    0 -0.11056238778E+03 -0.11263700996E+02  0.16753657077E+03  0.33112223809E+03  0.26310173216E+03 0.  0.
         25    1    4    4    0    0 -0.79247598722E+02 -0.25035570136E+02  0.56702653476E+02  0.16052931410E+03  0.12509000000E+03 0.  0.
         25    1    4    4    0    0 -0.31314789060E+02  0.13771869140E+02  0.11083391729E+03  0.17059292399E+03  0.12509000000E+03 0.  0.
         25    1    3    3    0    0  0.11056238778E+03  0.11263700996E+02  0.13339631603E+02  0.16785817354E+03  0.12509000000E+03 0.  0.
<mgrwt>
<rscale>  2 0.46504328E+03</rscale>
<asrwt>0</asrwt>
<pdfrwt beam="1">  1       21 0.49989457E-01 0.46504328E+03</pdfrwt>
<pdfrwt beam="2">  1       21 0.23390015E-01 0.46504328E+03</pdfrwt>
<totfact> 0.60382575E+04</totfact>
</mgrwt>
</event>
<event>
 7    0  0.4709932E-002  0.4581249E+03  0.7546771E-02  0.1025326E+00
         21   -1    0    0  502  501  0.00000000000E+00  0.00000000000E+00  0.27139449567E+03  0.27139449567E+03  0.00000000000E+00 0. -1.
         21   -1    0    0  501  502 -0.00000000000E+00 -0.00000000000E+00 -0.19333332609E+03  0.19333332609E+03  0.00000000000E+00 0. -1.
      99926    2    1    2    0    0  0.00000000000E+00  0.00000000000E+00  0.78061169577E+02  0.46472782175E+03  0.45812487612E+03 0.  0.
      99925    2    3    3    0    0  0.90266703737E+02 -0.34868708916E+02  0.11374003557E+03  0.30260319610E+03  0.26318813410E+03 0.  0.
         25    1    4    4    0    0  0.59255074919E+01 -0.27751660011E+02  0.38864374169E+02  0.13402691503E+03  0.12509000000E+03 0.  0.
         25    1    3    3    0    0 -0.90266703737E+02  0.34868708916E+02 -0.35678865997E+02  0.16212462566E+03  0.12509000000E+03 0.  0.
         25    1    4    4    0    0  0.84341196245E+02 -0.71170489047E+01  0.74875661404E+02  0.16857628107E+03  0.12509000000E+03 0.  0.
<mgrwt>
<rscale>  2 0.45812488E+03</rscale>
<asrwt>0</asrwt>
<pdfrwt beam="1">  1       21 0.39910956E-01 0.45812488E+03</pdfrwt>
<pdfrwt beam="2">  1       21 0.28431371E-01 0.45812488E+03</pdfrwt>
<totfact> 0.66171223E+04</totfact>
</mgrwt>
</event>
<event>
 7    0  0.4709932E-002  0.4538133E+03  0.7546771E-02  0.1026591E+00
         21   -1    0    0  502  501  0.00000000000E+00  0.00000000000E+00  0.28622653781E+04  0.28622653781E+04  0.00000000000E+00 0.  1.
         21   -1    0    0  501  502 -0.00000000000E+00 -0.00000000000E+00 -0.17988066717E+02  0.17988066717E+02  0.00000000000E+00 0.  1.
      99926    2    1    2    0    0  0.00000000000E+00  0.00000000000E+00  0.28442773114E+04  0.28802534449E+04  0.45381326813E+03 0.  0.
      99925    2    3    3    0    0 -0.80730027996E+02  0.49946050517E+02  0.21699640542E+04  0.21878967287E+04  0.26293754723E+03 0.  0.
         25    1    3    3    0    0  0.80730027996E+02 -0.49946050517E+02  0.67431325726E+03  0.69235671616E+03  0.12509000000E+03 0.  0.
         25    1    4    4    0    0 -0.48353759291E+02  0.59254783042E+02  0.98101811534E+03  0.99191394086E+03  0.12509000000E+03 0.  0.
         25    1    4    4    0    0 -0.32376268706E+02 -0.93087325253E+01  0.11889459388E+04  0.11959827878E+04  0.12509000000E+03 0.  0.
<mgrwt>
<rscale>  2 0.45381327E+03</rscale>
<asrwt>0</asrwt>
<pdfrwt beam="1">  1       21 0.42092107E+00 0.45381327E+03</pdfrwt>
<pdfrwt beam="2">  1       21 0.26453059E-02 0.45381327E+03</pdfrwt>
<totfact> 0.40079017E+03</totfact>
</mgrwt>
</event>
<event>
 7    0  0.4709932E-002  0.4521784E+03  0.7546771E-02  0.1027074E+00
         21   -1    0    0  502  501  0.00000000000E+00  0.00000000000E+00  0.12656317359E+03  0.12656317359E+03  0.00000000000E+00 0. -1.
         21   -1    0    0  501  502 -0.00000000000E+00 -0.00000000000E+00 -0.40387996972E+03  0.40387996972E+03  0.00000000000E+00 0. -1.
      99926    2    1    2    0    0 -0.17763568394E-14  0.00000000000E+00 -0.27731679613E+03  0.53044314331E+03  0.45217841928E+03 0.  0.
      99925    2    3    3    0    0 -0.73983152347E+01  0.10639608012E+03 -0.14132164378E+03  0.31709588999E+03  0.26306488841E+03 0.  0.
         25    1    4    4    0    0  0.34591403632E+02  0.58299893835E+02 -0.85330346651E+02  0.16590424644E+03  0.12509000000E+03 0.  0.
         25    1    4    4    0    0 -0.41989718867E+02  0.48096186290E+02 -0.55991297127E+02  0.15119164355E+03  0.12509000000E+03 0.  0.
         25    1    3    3    0    0  0.73983152347E+01 -0.10639608012E+03 -0.13599515235E+03  0.21334725332E+03  0.12509000000E+03 0.  0.
<mgrwt>
<rscale>  2 0.45217842E+03</rscale>
<asrwt>0</asrwt>
<pdfrwt beam="1">  1       21 0.18612232E-01 0.45217842E+03</pdfrwt>
<pdfrwt beam="2">  1       21 0.59394112E-01 0.45217842E+03</pdfrwt>
<totfact> 0.64608629E+04</totfact>
</mgrwt>
</event>
<event>
 7    0  0.4709932E-002  0.4547361E+03  0.7546771E-02  0.1026319E+00
         21   -1    0    0  502  501  0.00000000000E+00  0.00000000000E+00  0.10992836044E+03  0.10992836044E+03  0.00000000000E+00 0. -1.
         21   -1    0    0  501  502 -0.00000000000E+00 -0.00000000000E+00 -0.47027210174E+03  0.47027210174E+03  0.00000000000E+00 0. -1.
      99926    2    1    2    0    0  0.00000000000E+00  0.00000000000E+00 -0.36034374130E+03  0.58020046218E+03  0.45473614813E+03 0.  0.
      99925    2    3    3    0    0 -0.80040204711E+02 -0.72424374481E+02 -0.18388629001E+03  0.33846410868E+03  0.26285368709E+03 0.  0.
         25    1    3    3    0    0  0.80040204711E+02  0.72424374481E+02 -0.17645745129E+03  0.24173635350E+03  0.12509000000E+03 0.  0.
         25    1    4    4    0    0 -0.66821660999E+02 -0.74742900895E+01 -0.10283304630E+03  0.17533722623E+03  0.12509000000E+03 0.  0.
         25    1    4    4    0    0 -0.13218543712E+02 -0.64950084392E+02 -0.81053243714E+02  0.16312688245E+03  0.12509000000E+03 0.  0.
<mgrwt>
<rscale>  2 0.45473615E+03</rscale>
<asrwt>0</asrwt>
<pdfrwt beam="1">  1       21 0.16165936E-01 0.45473615E+03</pdfrwt>
<pdfrwt beam="2">  1       21 0.69157661E-01 0.45473615E+03</pdfrwt>
<totfact> 0.60038975E+04</totfact>
</mgrwt>
</event>
<event>
 7    0  0.4709932E-002  0.4417416E+03  0.7546771E-02  0.1030214E+00
         21   -1    0    0  502  501  0.00000000000E+00  0.00000000000E+00  0.64244395372E+03  0.64244395372E+03  0.00000000000E+00 0.  1.
         21   -1    0    0  501  502 -0.00000000000E+00 -0.00000000000E+00 -0.75934877864E+02  0.75934877864E+02  0.00000000000E+00 0.  1.
      99926    2    1    2    0    0 -0.22204460493E-15  0.35527136788E-14  0.56650907585E+03  0.71837883158E+03  0.44174156771E+03 0.  0.
      99925    2    3    3    0    0  0.18185015580E+01 -0.20950413401E+02  0.52038219489E+03  0.58340689369E+03  0.26291395566E+03 0.  0.
         25    1    3    3    0    0 -0.18185015580E+01  0.20950413401E+02  0.46126880960E+02  0.13497193789E+03  0.12509000000E+03 0.  0.
         25    1    4    4    0    0 -0.24379440890E+01 -0.44641652363E+02  0.31305003674E+03  0.34006860234E+03  0.12509000000E+03 0.  0.
         25    1    4    4    0    0  0.42564456470E+01  0.23691238962E+02  0.20733215816E+03  0.24333829135E+03  0.12509000000E+03 0.  0.
<mgrwt>
<rscale>  2 0.44174157E+03</rscale>
<asrwt>0</asrwt>
<pdfrwt beam="1">  1       21 0.94477049E-01 0.44174157E+03</pdfrwt>
<pdfrwt beam="2">  1       21 0.11166894E-01 0.44174157E+03</pdfrwt>
<totfact> 0.57702826E+04</totfact>
</mgrwt>
</event>
<event>
 7    0  0.4709932E-002  0.4567883E+03  0.7546771E-02  0.1025717E+00
         21   -1    0    0  502  501  0.00000000000E+00  0.00000000000E+00  0.26404733410E+03  0.26404733410E+03  0.00000000000E+00 0. -1.
         21   -1    0    0  501  502 -0.00000000000E+00 -0.00000000000E+00 -0.19755507242E+03  0.19755507242E+03  0.00000000000E+00 0. -1.
      99926    2    1    2    0    0  0.00000000000E+00  0.00000000000E+00  0.66492261678E+02  0.46160240652E+03  0.45678831076E+03 0.  0.
      99925    2    3    3    0    0  0.11419387434E+03  0.13387476397E+02  0.49672569544E+02  0.29086906003E+03  0.26252234278E+03 0.  0.
         25    1    3    3    0    0 -0.11419387434E+03 -0.13387476397E+02  0.16819692134E+02  0.17073334649E+03  0.12509000000E+03 0.  0.
         25    1    4    4    0    0  0.77786185277E+02 -0.27915399478E+02  0.25724238272E+02  0.15211576080E+03  0.12509000000E+03 0.  0.
         25    1    4    4    0    0  0.36407689058E+02  0.41302875874E+02  0.23948331272E+02  0.13875329924E+03  0.12509000000E+03 0.  0.
<mgrwt>
<rscale>  2 0.45678831E+03</rscale>
<asrwt>0</asrwt>
<pdfrwt beam="1">  1       21 0.38830490E-01 0.45678831E+03</pdfrwt>
<pdfrwt beam="2">  1       21 0.29052216E-01 0.45678831E+03</pdfrwt>
<totfact> 0.67101878E+04</totfact>
</mgrwt>
</event>
<event>
 7    0  0.4709932E-002  0.4628999E+03  0.7546771E-02  0.1023944E+00
         21   -1    0    0  502  501  0.00000000000E+00  0.00000000000E+00  0.38508040564E+02  0.38508040564E+02  0.00000000000E+00 0.  1.
         21   -1    0    0  501  502 -0.00000000000E+00 -0.00000000000E+00 -0.13911142232E+04  0.13911142232E+04  0.00000000000E+00 0.  1.
      99926    2    1    2    0    0  0.00000000000E+00  0.00000000000E+00 -0.13526061827E+04  0.14296222638E+04  0.46289991548E+03 0.  0.
      99925    2    3    3    0    0 -0.43261038135E+02 -0.29380091033E+02 -0.50996377645E+03  0.57614207069E+03  0.26294852187E+03 0.  0.
         25    1    3    3    0    0  0.43261038135E+02  0.29380091033E+02 -0.84264240622E+03  0.85348019311E+03  0.12509000000E+03 0.  0.
         25    1    4    4    0    0 -0.36566143509E+02  0.16116218366E+02 -0.29957520129E+03  0.32709268514E+03  0.12509000000E+03 0.  0.
         25    1    4    4    0    0 -0.66948946263E+01 -0.45496309399E+02 -0.21038857516E+03  0.24904938555E+03  0.12509000000E+03 0.  0.
<mgrwt>
<rscale>  2 0.46289992E+03</rscale>
<asrwt>0</asrwt>
<pdfrwt beam="1">  1       21 0.56629473E-02 0.46289992E+03</pdfrwt>
<pdfrwt beam="2">  1       21 0.20457562E+00 0.46289992E+03</pdfrwt>
<totfact> 0.24043164E+04</totfact>
</mgrwt>
</event>
<event>
 7    0  0.4709932E-002  0.4557497E+03  0.7546771E-02  0.1026021E+00
         21   -1    0    0  502  501  0.00000000000E+00  0.00000000000E+00  0.22160574977E+03  0.22160574977E+03  0.00000000000E+00 0.  1.
         21   -1    0    0  501  502 -0.00000000000E+00 -0.00000000000E+00 -0.23432130745E+03  0.23432130745E+03  0.00000000000E+00 0.  1.
      99926    2    1    2    0    0  0.00000000000E+00  0.00000000000E+00 -0.12715557672E+02  0.45592705722E+03  0.45574970773E+03 0.  0.
      99925    2    3    3    0    0  0.39278340799E+02  0.81454492673E+02 -0.77201533716E+02  0.28864414823E+03  0.26301662508E+03 0.  0.
         25    1    4    4    0    0  0.21125733092E+01  0.74335902712E+02 -0.57523817483E+02  0.15648254559E+03  0.12509000000E+03 0.  0.
         25    1    4    4    0    0  0.37165767490E+02  0.71185899608E+01 -0.19677716233E+02  0.13216160264E+03  0.12509000000E+03 0.  0.
         25    1    3    3    0    0 -0.39278340799E+02 -0.81454492673E+02  0.64485976044E+02  0.16728290899E+03  0.12509000000E+03 0.  0.
<mgrwt>
<rscale>  2 0.45574971E+03</rscale>
<asrwt>0</asrwt>
<pdfrwt beam="1">  1       21 0.32589081E-01 0.45574971E+03</pdfrwt>
<pdfrwt beam="2">  1       21 0.34459016E-01 0.45574971E+03</pdfrwt>
<totfact> 0.68069842E+04</totfact>
</mgrwt>
</event>
<event>
 7    0  0.4709932E-002  0.4656774E+03  0.7546771E-02  0.1023147E+00
         21   -1    0    0  502  501  0.00000000000E+00  0.00000000000E+00  0.22911542010E+03  0.22911542010E+03  0.00000000000E+00 0. -1.
         21   -1    0    0  501  502 -0.00000000000E+00 -0.00000000000E+00 -0.23662250081E+03  0.23662250081E+03  0.00000000000E+00 0. -1.
      99926    2    1    2    0    0  0.00000000000E+00  0.00000000000E+00 -0.75070807121E+01  0.46573792092E+03  0.46567741487E+03 0.  0.
      99925    2    3    3    0    0  0.17165530454E+02 -0.11236766148E+03  0.42775312819E+02  0.28939457973E+03  0.26267536734E+03 0.  0.
         25    1    4    4    0    0  0.21977317132E+02 -0.63601241763E+02  0.59523595394E+02  0.15400872355E+03  0.12509000000E+03 0.  0.
         25    1    3    3    0    0 -0.17165530454E+02  0.11236766148E+03 -0.50282393531E+02  0.17634334119E+03  0.12509000000E+03 0.  0.
         25    1    4    4    0    0 -0.48117866788E+01 -0.48766419715E+02 -0.16748282576E+02  0.13538585617E+03  0.12509000000E+03 0.  0.
<mgrwt>
<rscale>  2 0.46567741E+03</rscale>
<asrwt>0</asrwt>
<pdfrwt beam="1">  1       21 0.33693444E-01 0.46567741E+03</pdfrwt>
<pdfrwt beam="2">  1       21 0.34797427E-01 0.46567741E+03</pdfrwt>
<totfact> 0.62288035E+04</totfact>
</mgrwt>
</event>
<event>
 6    0  0.4709932E-002  0.4560484E+03  0.7546771E-02  0.1025934E+00
         21   -1    0    0  502  501  0.00000000000E+00  0.00000000000E+00  0.31882158119E+03  0.31882158119E+03  0.00000000000E+00 0.  1.
         21   -1    0    0  501  502 -0.00000000000E+00 -0.00000000000E+00 -0.16308505874E+03  0.16308505874E+03  0.00000000000E+00 0.  1.
      99926    2    1    2    0    0  0.00000000000E+00  0.35527136788E-14  0.15573652245E+03  0.48190663993E+03  0.45604840224E+03 0.  0.
         25    1    3    3    0    0  0.43514594847E+02 -0.34536179075E+02  0.31320565489E+01  0.13690721496E+03  0.12509000000E+03 0.  0.
         25    1    3    3    0    0 -0.98410212628E+01  0.21699622178E+02  0.17134327432E+03  0.21348008117E+03  0.12509000000E+03 0.  0.
         25    1    3    3    0    0 -0.33673573584E+02  0.12836556897E+02 -0.18738808425E+02  0.13151934379E+03  0.12509000000E+03 0.  0.
<mgrwt>
<rscale>  2 0.45604840E+03</rscale>
<asrwt>0</asrwt>
<pdfrwt beam="1">  1       21 0.46885527E-01 0.45604840E+03</pdfrwt>
<pdfrwt beam="2">  1       21 0.23983097E-01 0.45604840E+03</pdfrwt>
<totfact> 0.66010522E+04</totfact>
</mgrwt>
</event>
<event>
 7    0  0.4709932E-002  0.4543911E+03  0.7546771E-02  0.1026421E+00
         21   -1    0    0  502  501  0.00000000000E+00  0.00000000000E+00  0.45498643171E+03  0.45498643171E+03  0.00000000000E+00 0. -1.
         21   -1    0    0  501  502 -0.00000000000E+00 -0.00000000000E+00 -0.11344911650E+03  0.11344911650E+03  0.00000000000E+00 0. -1.
      99926    2    1    2    0    0  0.00000000000E+00  0.13322676296E-14  0.34153731522E+03  0.56843554821E+03  0.45439105931E+03 0.  0.
      99925    2    3    3    0    0 -0.59871070470E+02 -0.38381216711E+01  0.33417425944E+03  0.42950751307E+03  0.26306841668E+03 0.  0.
         25    1    4    4    0    0 -0.66372284835E+02  0.16176717727E+02  0.16445996000E+03  0.21762709604E+03  0.12509000000E+03 0.  0.
         25    1    3    3    0    0  0.59871070470E+02  0.38381216711E+01  0.73630557821E+01  0.13892803514E+03  0.12509000000E+03 0.  0.
         25    1    4    4    0    0  0.65012143647E+01 -0.20014839398E+02  0.16971429944E+03  0.21188041703E+03  0.12509000000E+03 0.  0.
<mgrwt>
<rscale>  2 0.45439106E+03</rscale>
<asrwt>0</asrwt>
<pdfrwt beam="1">  1       21 0.66909769E-01 0.45439106E+03</pdfrwt>
<pdfrwt beam="2">  1       21 0.16683694E-01 0.45439106E+03</pdfrwt>
<totfact> 0.60957480E+04</totfact>
</mgrwt>
</event>
<event>
 7    0  0.4709932E-002  0.4601825E+03  0.7546771E-02  0.1024728E+00
         21   -1    0    0  502  501  0.00000000000E+00  0.00000000000E+00  0.36586664281E+02  0.36586664281E+02  0.00000000000E+00 0. -1.
         21   -1    0    0  501  502 -0.00000000000E+00 -0.00000000000E+00 -0.14470294684E+04  0.14470294684E+04  0.00000000000E+00 0. -1.
      99926    2    1    2    0    0  0.00000000000E+00 -0.14210854715E-13 -0.14104428041E+04  0.14836161327E+04  0.46018249148E+03 0.  0.
      99925    2    3    3    0    0  0.66144355465E+02  0.90040024677E+02 -0.76149704719E+03  0.81334724235E+03  0.26300893894E+03 0.  0.
         25    1    4    4    0    0  0.59696924107E+02  0.74625867542E+02 -0.37268895625E+03  0.40457052421E+03  0.12509000000E+03 0.  0.
         25    1    3    3    0    0 -0.66144355465E+02 -0.90040024677E+02 -0.64894575695E+03  0.67026889035E+03  0.12509000000E+03 0.  0.
         25    1    4    4    0    0  0.64474313572E+01  0.15414157135E+02 -0.38880809094E+03  0.40877671814E+03  0.12509000000E+03 0.  0.
<mgrwt>
<rscale>  2 0.46018249E+03</rscale>
<asrwt>0</asrwt>
<pdfrwt beam="1">  1       21 0.53803924E-02 0.46018249E+03</pdfrwt>
<pdfrwt beam="2">  1       21 0.21279843E+00 0.46018249E+03</pdfrwt>
<totfact> 0.23234067E+04</totfact>
</mgrwt>
</event>
<event>
 7    0  0.4709932E-002  0.4526884E+03  0.7546771E-02  0.1026923E+00
         21   -1    0    0  502  501  0.00000000000E+00  0.00000000000E+00  0.13325948004E+03  0.13325948004E+03  0.00000000000E+00 0. -1.
         21   -1    0    0  501  502 -0.00000000000E+00 -0.00000000000E+00 -0.38445070132E+03  0.38445070132E+03  0.00000000000E+00 0. -1.
      99926    2    1    2    0    0  0.88817841970E-15  0.14210854715E-13 -0.25119122128E+03  0.51771018135E+03  0.45268841627E+03 0.  0.
      99925    2    3    3    0    0  0.68376838246E+01 -0.11071994807E+03 -0.15967627708E+03  0.32711072193E+03  0.26305750344E+03 0.  0.
         25    1    4    4    0    0  0.21335091984E+02 -0.44117760195E+02 -0.11766628334E+03  0.17859010401E+03  0.12509000000E+03 0.  0.
         25    1    4    4    0    0 -0.14497408160E+02 -0.66602187876E+02 -0.42009993740E+02  0.14852061792E+03  0.12509000000E+03 0.  0.
         25    1    3    3    0    0 -0.68376838246E+01  0.11071994807E+03 -0.91514944202E+02  0.19059945943E+03  0.12509000000E+03 0.  0.
<mgrwt>
<rscale>  2 0.45268842E+03</rscale>
<asrwt>0</asrwt>
<pdfrwt beam="1">  1       21 0.19596982E-01 0.45268842E+03</pdfrwt>
<pdfrwt beam="2">  1       21 0.56536868E-01 0.45268842E+03</pdfrwt>
<totfact> 0.65231722E+04</totfact>
</mgrwt>
</event>
<event>
 7    0  0.4709932E-002  0.4436242E+03  0.7546771E-02  0.1029641E+00
         21   -1    0    0  502  501  0.00000000000E+00  0.00000000000E+00  0.53293908188E+03  0.53293908188E+03  0.00000000000E+00 0.  1.
         21   -1    0    0  501  502 -0.00000000000E+00 -0.00000000000E+00 -0.92319379823E+02  0.92319379823E+02  0.00000000000E+00 0.  1.
      99926    2    1    2    0    0  0.00000000000E+00  0.00000000000E+00  0.44061970206E+03  0.62525846171E+03  0.44362419016E+03 0.  0.
      99925    2    3    3    0    0 -0.69781484690E+02  0.73581444720E+02  0.29798785873E+03  0.41014213168E+03  0.26293748233E+03 0.  0.
         25    1    4    4    0    0 -0.10740805375E+02  0.21469039969E+02  0.94341914195E+02  0.15850611802E+03  0.12509000000E+03 0.  0.
         25    1    4    4    0    0 -0.59040679315E+02  0.52112404751E+02  0.20364594453E+03  0.25163601365E+03  0.12509000000E+03 0.  0.
         25    1    3    3    0    0  0.69781484690E+02 -0.73581444720E+02  0.14263184334E+03  0.21511633003E+03  0.12509000000E+03 0.  0.
<mgrwt>
<rscale>  2 0.44362419E+03</rscale>
<asrwt>0</asrwt>
<pdfrwt beam="1">  1       21 0.78373393E-01 0.44362419E+03</pdfrwt>
<pdfrwt beam="2">  1       21 0.13576380E-01 0.44362419E+03</pdfrwt>
<totfact> 0.62583830E+04</totfact>
</mgrwt>
</event>
<event>
 7    0  0.4709932E-002  0.4582658E+03  0.7546771E-02  0.1025285E+00
         21   -1    0    0  502  501  0.00000000000E+00  0.00000000000E+00  0.18064260234E+03  0.18064260234E+03  0.00000000000E+00 0. -1.
         21   -1    0    0  501  502 -0.00000000000E+00 -0.00000000000E+00 -0.29063957079E+03  0.29063957079E+03  0.00000000000E+00 0. -1.
      99926    2    1    2    0    0 -0.26645352591E-14  0.00000000000E+00 -0.10999696846E+03  0.47128217313E+03  0.45826581112E+03 0.  0.
      99925    2    3    3    0    0 -0.67928350925E+01  0.95815267734E+02 -0.19393556922E+01  0.28009989383E+03  0.26310735696E+03 0.  0.
         25    1    3    3    0    0  0.67928350925E+01 -0.95815267734E+02 -0.10805761277E+03  0.19118227929E+03  0.12509000000E+03 0.  0.
         25    1    4    4    0    0  0.14819130527E+02  0.84379096457E+02 -0.12957834497E+02  0.15216718478E+03  0.12509000000E+03 0.  0.
         25    1    4    4    0    0 -0.21611965619E+02  0.11436171277E+02  0.11018478804E+02  0.12793270906E+03  0.12509000000E+03 0.  0.
<mgrwt>
<rscale>  2 0.45826581E+03</rscale>
<asrwt>0</asrwt>
<pdfrwt beam="1">  1       21 0.26565089E-01 0.45826581E+03</pdfrwt>
<pdfrwt beam="2">  1       21 0.42741113E-01 0.45826581E+03</pdfrwt>
<totfact> 0.65623904E+04</totfact>
</mgrwt>
</event>
<event>
 7    0  0.4709932E-002  0.4356771E+03  0.7546771E-02  0.1032081E+00
         21   -1    0    0  502  501  0.00000000000E+00  0.00000000000E+00  0.63615946262E+03  0.63615946262E+03  0.00000000000E+00 0.  1.
         21   -1    0    0  501  502 -0.00000000000E+00 -0.00000000000E+00 -0.74593938003E+02  0.74593938003E+02  0.00000000000E+00 0.  1.
      99926    2    1    2    0    0  0.00000000000E+00  0.00000000000E+00  0.56156552462E+03  0.71075340062E+03  0.43567712593E+03 0.  0.
      99925    2    3    3    0    0  0.85277820044E+02 -0.33265370249E+02  0.32535035427E+03  0.42822197537E+03  0.26294926454E+03 0.  0.
         25    1    4    4    0    0  0.10029502071E+02 -0.32789103108E+02  0.12333412740E+03  0.17898193003E+03  0.12509000000E+03 0.  0.
         25    1    3    3    0    0 -0.85277820044E+02  0.33265370249E+02  0.23621517035E+03  0.28253142525E+03  0.12509000000E+03 0.  0.
         25    1    4    4    0    0  0.75248317972E+02 -0.47626714081E+00  0.20201622686E+03  0.24924004535E+03  0.12509000000E+03 0.  0.
<mgrwt>
<rscale>  2 0.43567713E+03</rscale>
<asrwt>0</asrwt>
<pdfrwt beam="1">  1       21 0.93552859E-01 0.43567713E+03</pdfrwt>
<pdfrwt beam="2">  1       21 0.10969697E-01 0.43567713E+03</pdfrwt>
<totfact> 0.61094213E+04</totfact>
</mgrwt>
</event>
<event>
 7    0  0.4709932E-002  0.4496956E+03  0.7546771E-02  0.1027813E+00
         21   -1    0    0  502  501  0.00000000000E+00  0.00000000000E+00  0.95702067472E+02  0.95702067472E+02  0.00000000000E+00 0.  1.
         21   -1    0    0  501  502 -0.00000000000E+00 -0.00000000000E+00 -0.52827008772E+03  0.52827008772E+03  0.00000000000E+00 0.  1.
      99926    2    1    2    0    0  0.00000000000E+00  0.71054273576E-14 -0.43256802025E+03  0.62397215519E+03  0.44969562852E+03 0.  0.
      99925    2    3    3    0    0  0.91081277590E+00  0.42160012933E+02 -0.13554475185E+03  0.29893580900E+03  0.26308162589E+03 0.  0.
         25    1    3    3    0    0 -0.91081277590E+00 -0.42160012933E+02 -0.29702326840E+03  0.32503634618E+03  0.12509000000E+03 0.  0.
         25    1    4    4    0    0  0.29142957491E+02  0.31543683041E+02 -0.38432104813E+02  0.13772745076E+03  0.12509000000E+03 0.  0.
         25    1    4    4    0    0 -0.28232144716E+02  0.10616329892E+02 -0.97112647034E+02  0.16120835825E+03  0.12509000000E+03 0.  0.
<mgrwt>
<rscale>  2 0.44969563E+03</rscale>
<asrwt>0</asrwt>
<pdfrwt beam="1">  1       21 0.14073833E-01 0.44969563E+03</pdfrwt>
<pdfrwt beam="2">  1       21 0.77686778E-01 0.44969563E+03</pdfrwt>
<totfact> 0.59687121E+04</totfact>
</mgrwt>
</event>
<event>
 7    0  0.4709932E-002  0.4588478E+03  0.7546771E-02  0.1025116E+00
         21   -1    0    0  502  501  0.00000000000E+00  0.00000000000E+00  0.18091315494E+03  0.18091315494E+03  0.00000000000E+00 0. -1.
         21   -1    0    0  501  502 -0.00000000000E+00 -0.00000000000E+00 -0.29094245498E+03  0.29094245498E+03  0.00000000000E+00 0. -1.
      99926    2    1    2    0    0 -0.71054273576E-14  0.14210854715E-13 -0.11002930004E+03  0.47185560993E+03  0.45884776315E+03 0.  0.
      99925    2    3    3    0    0 -0.27856246179E+02  0.70066464370E+02  0.22558781768E+02  0.27459337984E+03  0.26307289054E+03 0.  0.
         25    1    3    3    0    0  0.27856246179E+02 -0.70066464370E+02 -0.13258808181E+03  0.19726223009E+03  0.12509000000E+03 0.  0.
         25    1    4    4    0    0 -0.41981548423E+02  0.63402690770E+02  0.24998456746E+02  0.14850852684E+03  0.12509000000E+03 0.  0.
         25    1    4    4    0    0  0.14125302244E+02  0.66637736000E+01 -0.24396749785E+01  0.12608485300E+03  0.12509000000E+03 0.  0.
<mgrwt>
<rscale>  2 0.45884776E+03</rscale>
<asrwt>0</asrwt>
<pdfrwt beam="1">  1       21 0.26604876E-01 0.45884776E+03</pdfrwt>
<pdfrwt beam="2">  1       21 0.42785655E-01 0.45884776E+03</pdfrwt>
<totfact> 0.65282517E+04</totfact>
</mgrwt>
</event>
<event>
 7    0  0.4709932E-002  0.4437546E+03  0.7546771E-02  0.1029601E+00
         21   -1    0    0  502  501  0.00000000000E+00  0.00000000000E+00  0.14029180545E+03  0.14029180545E+03  0.00000000000E+00 0.  1.
         21   -1    0    0  501  502 -0.00000000000E+00 -0.00000000000E+00 -0.35090817186E+03  0.35090817186E+03  0.00000000000E+00 0.  1.
      99926    2    1    2    0    0 -0.66613381478E-15  0.00000000000E+00 -0.21061636641E+03  0.49119997731E+03  0.44375462128E+03 0.  0.
      99925    2    3    3    0    0  0.15254037852E+01 -0.94617776343E+02 -0.90745642684E+02  0.29378835414E+03  0.26291058348E+03 0.  0.
         25    1    4    4    0    0  0.21469743560E+02 -0.51194490258E+02 -0.95493986461E+01  0.13718791797E+03  0.12509000000E+03 0.  0.
         25    1    4    4    0    0 -0.19944339775E+02 -0.43423286085E+02 -0.81196244038E+02  0.15660043617E+03  0.12509000000E+03 0.  0.
         25    1    3    3    0    0 -0.15254037852E+01  0.94617776343E+02 -0.11987072372E+03  0.19741162317E+03  0.12509000000E+03 0.  0.
<mgrwt>
<rscale>  2 0.44375462E+03</rscale>
<asrwt>0</asrwt>
<pdfrwt beam="1">  1       21 0.20631147E-01 0.44375462E+03</pdfrwt>
<pdfrwt beam="2">  1       21 0.51604144E-01 0.44375462E+03</pdfrwt>
<totfact> 0.72119615E+04</totfact>
</mgrwt>
</event>
<event>
 7    0  0.4709932E-002  0.4467339E+03  0.7546771E-02  0.1028701E+00
         21   -1    0    0  502  501  0.00000000000E+00  0.00000000000E+00  0.48444611918E+02  0.48444611918E+02  0.00000000000E+00 0. -1.
         21   -1    0    0  501  502 -0.00000000000E+00 -0.00000000000E+00 -0.10298935089E+04  0.10298935089E+04  0.00000000000E+00 0. -1.
      99926    2    1    2    0    0  0.35527136788E-14  0.00000000000E+00 -0.98144889703E+03  0.10783381209E+04  0.44673388659E+03 0.  0.
      99925    2    3    3    0    0  0.13899451449E+02  0.69475940525E+02 -0.81048861911E+03  0.85496617592E+03  0.26278367376E+03 0.  0.
         25    1    3    3    0    0 -0.13899451449E+02 -0.69475940525E+02 -0.17096027791E+03  0.22337194494E+03  0.12509000000E+03 0.  0.
         25    1    4    4    0    0 -0.21923075435E+02  0.49794770965E+02 -0.48674050132E+03  0.50549378253E+03  0.12509000000E+03 0.  0.
         25    1    4    4    0    0  0.35822526884E+02  0.19681169560E+02 -0.32374811780E+03  0.34947239339E+03  0.12509000000E+03 0.  0.
<mgrwt>
<rscale>  2 0.44673389E+03</rscale>
<asrwt>0</asrwt>
<pdfrwt beam="1">  1       21 0.71242078E-02 0.44673389E+03</pdfrwt>
<pdfrwt beam="2">  1       21 0.15145492E+00 0.44673389E+03</pdfrwt>
<totfact> 0.38690348E+04</totfact>
</mgrwt>
</event>
<event>
 7    0  0.4709932E-002  0.4497820E+03  0.7546771E-02  0.1027787E+00
         21   -1    0    0  502  501  0.00000000000E+00  0.00000000000E+00  0.32014550828E+02  0.32014550828E+02  0.00000000000E+00 0. -1.
         21   -1    0    0  501  502 -0.00000000000E+00 -0.00000000000E+00 -0.15797806517E+04  0.15797806517E+04  0.00000000000E+00 0. -1.
      99926    2    1    2    0    0  0.00000000000E+00  0.00000000000E+00 -0.15477661009E+04  0.16117952025E+04  0.44978202708E+03 0.  0.
      99925    2    3    3    0    0 -0.68032096411E+02 -0.83833722583E+02 -0.95263111886E+03  0.99414674742E+03  0.26299286607E+03 0.  0.
         25    1    3    3    0    0  0.68032096411E+02  0.83833722583E+02 -0.59513498203E+03  0.61764845512E+03  0.12509000000E+03 0.  0.
         25    1    4    4    0    0 -0.31586250760E+02 -0.84065831851E+02 -0.52061824468E+03  0.54291400803E+03  0.12509000000E+03 0.  0.
         25    1    4    4    0    0 -0.36445845651E+02  0.23210926733E+00 -0.43201287418E+03  0.45123273939E+03  0.12509000000E+03 0.  0.
<mgrwt>
<rscale>  2 0.44978203E+03</rscale>
<asrwt>0</asrwt>
<pdfrwt beam="1">  1       21 0.47080223E-02 0.44978203E+03</pdfrwt>
<pdfrwt beam="2">  1       21 0.23232068E+00 0.44978203E+03</pdfrwt>
<totfact> 0.22044280E+04</totfact>
</mgrwt>
</event>
<event>
 7    0  0.4709932E-002  0.4520946E+03  0.7546771E-02  0.1027099E+00
         21   -1    0    0  502  501  0.00000000000E+00  0.00000000000E+00  0.19458532568E+04  0.19458532568E+04  0.00000000000E+00 0. -1.
         21   -1    0    0  501  502 -0.00000000000E+00 -0.00000000000E+00 -0.26259626546E+02  0.26259626546E+02  0.00000000000E+00 0. -1.
      99926    2    1    2    0    0  0.00000000000E+00  0.00000000000E+00  0.19195936303E+04  0.19721128834E+04  0.45209459115E+03 0.  0.
      99925    2    3    3    0    0  0.10268319342E+03 -0.32054004326E+02  0.13208708338E+04  0.13510752094E+04  0.26293186263E+03 0.  0.
         25    1    4    4    0    0  0.93415917758E+01 -0.86378528433E+01  0.54515812925E+03  0.55947008126E+03  0.12509000000E+03 0.  0.
         25    1    3    3    0    0 -0.10268319342E+03  0.32054004326E+02  0.59872279643E+03  0.62103767396E+03  0.12509000000E+03 0.  0.
         25    1    4    4    0    0  0.93341601643E+02 -0.23416151482E+02  0.77571270459E+03  0.79160512815E+03  0.12509000000E+03 0.  0.
<mgrwt>
<rscale>  2 0.45209459E+03</rscale>
<asrwt>0</asrwt>
<pdfrwt beam="1">  1       21 0.28615479E+00 0.45209459E+03</pdfrwt>
<pdfrwt beam="2">  1       21 0.38617111E-02 0.45209459E+03</pdfrwt>
<totfact> 0.14494648E+04</totfact>
</mgrwt>
</event>
<event>
 7    0  0.4709932E-002  0.4462159E+03  0.7546771E-02  0.1028857E+00
         21   -1    0    0  502  501  0.00000000000E+00  0.00000000000E+00  0.16620954076E+03  0.16620954076E+03  0.00000000000E+00 0. -1.
         21   -1    0    0  501  502 -0.00000000000E+00 -0.00000000000E+00 -0.29948442018E+03  0.29948442018E+03  0.00000000000E+00 0. -1.
      99926    2    1    2    0    0  0.00000000000E+00  0.71054273576E-14 -0.13327487941E+03  0.46569396094E+03  0.44621594746E+03 0.  0.
      99925    2    3    3    0    0 -0.80825852801E+02 -0.62490686559E+02 -0.10840210950E+03  0.30228016969E+03  0.26302923650E+03 0.  0.
         25    1    4    4    0    0 -0.24374937041E+02 -0.51190255459E+02 -0.87900563794E+02  0.16306010249E+03  0.12509000000E+03 0.  0.
         25    1    3    3    0    0  0.80825852801E+02  0.62490686559E+02 -0.24872769914E+02  0.16341379125E+03  0.12509000000E+03 0.  0.
         25    1    4    4    0    0 -0.56450915760E+02 -0.11300431100E+02 -0.20501545706E+02  0.13922006719E+03  0.12509000000E+03 0.  0.
<mgrwt>
<rscale>  2 0.44621595E+03</rscale>
<asrwt>0</asrwt>
<pdfrwt beam="1">  1       21 0.24442580E-01 0.44621595E+03</pdfrwt>
<pdfrwt beam="2">  1       21 0.44041826E-01 0.44621595E+03</pdfrwt>
<totfact> 0.72692789E+04</totfact>
</mgrwt>
</event>
<event>
 7    0  0.4709932E-002  0.4533338E+03  0.7546771E-02  0.1026733E+00
         21   -1    0    0  502  501  0.00000000000E+00  0.00000000000E+00  0.49356426593E+03  0.49356426593E+03  0.00000000000E+00 0.  1.
         21   -1    0    0  501  502 -0.00000000000E+00 -0.00000000000E+00 -0.10409563467E+03  0.10409563467E+03  0.00000000000E+00 0.  1.
      99926    2    1    2    0    0  0.00000000000E+00  0.14210854715E-13  0.38946863126E+03  0.59765990060E+03  0.45333380863E+03 0.  0.
      99925    2    3    3    0    0  0.69129553709E+02  0.74785678054E+02  0.18537084479E+03  0.33751531123E+03  0.26302555460E+03 0.  0.
         25    1    4    4    0    0  0.91313345844E+01  0.68863696375E+02  0.98750799314E+02  0.17385286427E+03  0.12509000000E+03 0.  0.
         25    1    4    4    0    0  0.59998219125E+02  0.59219816794E+01  0.86620045480E+02  0.16366244696E+03  0.12509000000E+03 0.  0.
         25    1    3    3    0    0 -0.69129553709E+02 -0.74785678054E+02  0.20409778647E+03  0.26014458937E+03  0.12509000000E+03 0.  0.
<mgrwt>
<rscale>  2 0.45333381E+03</rscale>
<asrwt>0</asrwt>
<pdfrwt beam="1">  1       21 0.72582979E-01 0.45333381E+03</pdfrwt>
<pdfrwt beam="2">  1       21 0.15308182E-01 0.45333381E+03</pdfrwt>
<totfact> 0.59603396E+04</totfact>
</mgrwt>
</event>
<event>
 7    0  0.4709932E-002  0.4428505E+03  0.7546771E-02  0.1029876E+00
         21   -1    0    0  502  501  0.00000000000E+00  0.00000000000E+00  0.63899789282E+03  0.63899789282E+03  0.00000000000E+00 0.  1.
         21   -1    0    0  501  502 -0.00000000000E+00 -0.00000000000E+00 -0.76728180891E+02  0.76728180891E+02  0.00000000000E+00 0.  1.
      99926    2    1    2    0    0  0.00000000000E+00 -0.71054273576E-14  0.56226971193E+03  0.71572607371E+03  0.44285052065E+03 0.  0.
      99925    2    3    3    0    0 -0.89103957779E+02 -0.47427042232E+02  0.37216169641E+03  0.46677345716E+03  0.26302907140E+03 0.  0.
         25    1    3    3    0    0  0.89103957779E+02  0.47427042232E+02  0.19010801552E+03  0.24895261656E+03  0.12509000000E+03 0.  0.
         25    1    4    4    0    0 -0.39825683189E+02 -0.53645094585E+02  0.14560466680E+03  0.20325380269E+03  0.12509000000E+03 0.  0.
         25    1    4    4    0    0 -0.49278274591E+02  0.62180523538E+01  0.22655702961E+03  0.26351965447E+03  0.12509000000E+03 0.  0.
<mgrwt>
<rscale>  2 0.44285052E+03</rscale>
<asrwt>0</asrwt>
<pdfrwt beam="1">  1       21 0.93970275E-01 0.44285052E+03</pdfrwt>
<pdfrwt beam="2">  1       21 0.11283556E-01 0.44285052E+03</pdfrwt>
<totfact> 0.57344617E+04</totfact>
</mgrwt>
</event>
<event>
 7    0  0.4709932E-002  0.4595141E+03  0.7546771E-02  0.1024922E+00
         21   -1    0    0  502  501  0.00000000000E+00  0.00000000000E+00  0.45350157734E+03  0.45350157734E+03  0.00000000000E+00 0.  1.
         21   -1    0    0  501  502 -0.00000000000E+00 -0.00000000000E+00 -0.11640160571E+03  0.11640160571E+03  0.00000000000E+00 0.  1.
      99926    2    1    2    0    0  0.00000000000E+00  0.00000000000E+00  0.33709997164E+03  0.56990318305E+03  0.45951414252E+03 0.  0.
      99925    2    3    3    0    0 -0.29353870195E+02  0.11337506987E+03  0.20190205648E+03  0.35163376117E+03  0.26299487718E+03 0.  0.
         25    1    3    3    0    0  0.29353870195E+02 -0.11337506987E+03  0.13519791516E+03  0.21826942188E+03  0.12509000000E+03 0.  0.
         25    1    4    4    0    0 -0.29738699476E+02  0.16407855247E+02  0.90740059987E+02  0.15822412757E+03  0.12509000000E+03 0.  0.
         25    1    4    4    0    0  0.38482928028E+00  0.96967214621E+02  0.11116199649E+03  0.19340963360E+03  0.12509000000E+03 0.  0.
<mgrwt>
<rscale>  2 0.45951414E+03</rscale>
<asrwt>0</asrwt>
<pdfrwt beam="1">  1       21 0.66691408E-01 0.45951414E+03</pdfrwt>
<pdfrwt beam="2">  1       21 0.17117883E-01 0.45951414E+03</pdfrwt>
<totfact> 0.58455308E+04</totfact>
</mgrwt>
</event>
<event>
 7    0  0.4709932E-002  0.4596300E+03  0.7546771E-02  0.1024889E+00
         21   -1    0    0  502  501  0.00000000000E+00  0.00000000000E+00  0.15960671276E+04  0.15960671276E+04  0.00000000000E+00 0.  1.
         21   -1    0    0  501  502 -0.00000000000E+00 -0.00000000000E+00 -0.33090667915E+02  0.33090667915E+02  0.00000000000E+00 0.  1.
      99926    2    1    2    0    0 -0.35527136788E-14 -0.14210854715E-13  0.15629764597E+04  0.16291577955E+04  0.45962996983E+03 0.  0.
      99925    2    3    3    0    0 -0.24032648947E+02 -0.10733766847E+03  0.83382846539E+03  0.88122514550E+03  0.26303783771E+03 0.  0.
         25    1    4    4    0    0  0.17736185573E+02 -0.36067348511E+02  0.31849976535E+03  0.34453596987E+03  0.12509000000E+03 0.  0.
         25    1    3    3    0    0  0.24032648947E+02  0.10733766847E+03  0.72914799431E+03  0.74793265004E+03  0.12509000000E+03 0.  0.
         25    1    4    4    0    0 -0.41768834520E+02 -0.71270319956E+02  0.51532870005E+03  0.53668917563E+03  0.12509000000E+03 0.  0.
<mgrwt>
<rscale>  2 0.45962997E+03</rscale>
<asrwt>0</asrwt>
<pdfrwt beam="1">  1       21 0.23471570E+00 0.45962997E+03</pdfrwt>
<pdfrwt beam="2">  1       21 0.48662757E-02 0.45962997E+03</pdfrwt>
<totfact> 0.20048365E+04</totfact>
</mgrwt>
</event>
<event>
 7    0  0.4709932E-002  0.4712751E+03  0.7546771E-02  0.1021561E+00
         21   -1    0    0  502  501  0.00000000000E+00  0.00000000000E+00  0.89274883704E+02  0.89274883704E+02  0.00000000000E+00 0.  1.
         21   -1    0    0  501  502 -0.00000000000E+00 -0.00000000000E+00 -0.62195616286E+03  0.62195616286E+03  0.00000000000E+00 0.  1.
      99926    2    1    2    0    0  0.00000000000E+00  0.00000000000E+00 -0.53268127916E+03  0.71123104656E+03  0.47127513878E+03 0.  0.
      99925    2    3    3    0    0  0.49965198115E+02  0.10914996491E+03 -0.39679630695E+03  0.49095288234E+03  0.26301556534E+03 0.  0.
         25    1    4    4    0    0  0.16680614537E+01  0.75551453301E+02 -0.15950942737E+03  0.21633670526E+03  0.12509000000E+03 0.  0.
         25    1    3    3    0    0 -0.49965198115E+02 -0.10914996491E+03 -0.13588497221E+03  0.22027816423E+03  0.12509000000E+03 0.  0.
         25    1    4    4    0    0  0.48297136661E+02  0.33598511607E+02 -0.23728687958E+03  0.27461617707E+03  0.12509000000E+03 0.  0.
<mgrwt>
<rscale>  2 0.47127514E+03</rscale>
<asrwt>0</asrwt>
<pdfrwt beam="1">  1       21 0.13128660E-01 0.47127514E+03</pdfrwt>
<pdfrwt beam="2">  1       21 0.91464139E-01 0.47127514E+03</pdfrwt>
<totfact> 0.46103034E+04</totfact>
</mgrwt>
</event>
<event>
 7    0  0.4709932E-002  0.4583183E+03  0.7546771E-02  0.1025270E+00
         21   -1    0    0  502  501  0.00000000000E+00  0.00000000000E+00  0.19009370720E+03  0.19009370720E+03  0.00000000000E+00 0.  1.
         21   -1    0    0  501  502 -0.00000000000E+00 -0.00000000000E+00 -0.27625280592E+03  0.27625280592E+03  0.00000000000E+00 0.  1.
      99926    2    1    2    0    0 -0.35527136788E-14 -0.14210854715E-13 -0.86159098722E+02  0.46634651311E+03  0.45831831733E+03 0.  0.
      99925    2    3    3    0    0 -0.27505183517E+02 -0.11291651162E+03 -0.56372916798E+02  0.29302196652E+03  0.26301576644E+03 0.  0.
         25    1    4    4    0    0 -0.34537416539E+02 -0.39906941877E+02 -0.58895633147E+02  0.14799189456E+03  0.12509000000E+03 0.  0.
         25    1    3    3    0    0  0.27505183517E+02  0.11291651162E+03 -0.29786181925E+02  0.17332454659E+03  0.12509000000E+03 0.  0.
         25    1    4    4    0    0  0.70322330214E+01 -0.73009569746E+02  0.25227163493E+01  0.14503007196E+03  0.12509000000E+03 0.  0.
<mgrwt>
<rscale>  2 0.45831832E+03</rscale>
<asrwt>0</asrwt>
<pdfrwt beam="1">  1       21 0.27954957E-01 0.45831832E+03</pdfrwt>
<pdfrwt beam="2">  1       21 0.40625412E-01 0.45831832E+03</pdfrwt>
<totfact> 0.65953353E+04</totfact>
</mgrwt>
</event>
<event>
 7    0  0.4709932E-002  0.4524259E+03  0.7546771E-02  0.1027001E+00
         21   -1    0    0  502  501  0.00000000000E+00  0.00000000000E+00  0.86071124998E+03  0.86071124998E+03  0.00000000000E+00 0.  1.
         21   -1    0    0  501  502 -0.00000000000E+00 -0.00000000000E+00 -0.59453503746E+02  0.59453503746E+02  0.00000000000E+00 0.  1.
      99926    2    1    2    0    0  0.00000000000E+00  0.00000000000E+00  0.80125774623E+03  0.92016475372E+03  0.45242590344E+03 0.  0.
      99925    2    3    3    0    0  0.36904137153E+02 -0.81481292207E+02  0.63765908586E+03  0.69563603375E+03  0.26324753627E+03 0.  0.
         25    1    4    4    0    0  0.16974544634E+02 -0.77169030570E+01  0.36152639133E+03  0.38300982427E+03  0.12509000000E+03 0.  0.
         25    1    4    4    0    0  0.19929592518E+02 -0.73764389150E+02  0.27613269453E+03  0.31262620948E+03  0.12509000000E+03 0.  0.
         25    1    3    3    0    0 -0.36904137153E+02  0.81481292207E+02  0.16359866037E+03  0.22452871997E+03  0.12509000000E+03 0.  0.
<mgrwt>
<rscale>  2 0.45242590E+03</rscale>
<asrwt>0</asrwt>
<pdfrwt beam="1">  1       21 0.12657518E+00 0.45242590E+03</pdfrwt>
<pdfrwt beam="2">  1       21 0.87431628E-02 0.45242590E+03</pdfrwt>
<totfact> 0.43237274E+04</totfact>
</mgrwt>
</event>
<event>
 7    0  0.4709932E-002  0.4599474E+03  0.7546771E-02  0.1024796E+00
         21   -1    0    0  502  501  0.00000000000E+00  0.00000000000E+00  0.41992178798E+03  0.41992178798E+03  0.00000000000E+00 0.  1.
         21   -1    0    0  501  502 -0.00000000000E+00 -0.00000000000E+00 -0.12594701360E+03  0.12594701360E+03  0.00000000000E+00 0.  1.
      99926    2    1    2    0    0  0.00000000000E+00  0.71054273576E-14  0.29397477438E+03  0.54586880158E+03  0.45994736717E+03 0.  0.
      99925    2    3    3    0    0 -0.44346050202E+02 -0.61497870042E+02  0.76060753290E+02  0.28341387426E+03  0.26227776448E+03 0.  0.
         25    1    4    4    0    0 -0.52545749987E+02 -0.26748507587E+02  0.13146700037E+02  0.13891321867E+03  0.12509000000E+03 0.  0.
         25    1    3    3    0    0  0.44346050202E+02  0.61497870042E+02  0.21791402109E+03  0.26245492733E+03  0.12509000000E+03 0.  0.
         25    1    4    4    0    0  0.81996997854E+01 -0.34749362454E+02  0.62914053253E+02  0.14450065558E+03  0.12509000000E+03 0.  0.
<mgrwt>
<rscale>  2 0.45994737E+03</rscale>
<asrwt>0</asrwt>
<pdfrwt beam="1">  1       21 0.61753204E-01 0.45994737E+03</pdfrwt>
<pdfrwt beam="2">  1       21 0.18521620E-01 0.45994737E+03</pdfrwt>
<totfact> 0.59766038E+04</totfact>
</mgrwt>
</event>
<event>
 7    0  0.4709932E-002  0.4531521E+03  0.7546771E-02  0.1026786E+00
         21   -1    0    0  502  501  0.00000000000E+00  0.00000000000E+00  0.21552736655E+03  0.21552736655E+03  0.00000000000E+00 0. -1.
         21   -1    0    0  501  502 -0.00000000000E+00 -0.00000000000E+00 -0.23819113370E+03  0.23819113370E+03  0.00000000000E+00 0. -1.
      99926    2    1    2    0    0  0.00000000000E+00 -0.44408920985E-14 -0.22663767154E+02  0.45371850025E+03  0.45315210595E+03 0.  0.
      99925    2    3    3    0    0 -0.10755642118E+03 -0.45671291474E+01 -0.43577750963E+02  0.28736302175E+03  0.26284832791E+03 0.  0.
         25    1    4    4    0    0 -0.75622549102E+02 -0.36567347850E+02 -0.30303102340E+02  0.15369361396E+03  0.12509000000E+03 0.  0.
         25    1    3    3    0    0  0.10755642118E+03  0.45671291474E+01  0.20913983809E+02  0.16635547850E+03  0.12509000000E+03 0.  0.
         25    1    4    4    0    0 -0.31933872082E+02  0.32000218703E+02 -0.13274648623E+02  0.13366940779E+03  0.12509000000E+03 0.  0.
<mgrwt>
<rscale>  2 0.45315211E+03</rscale>
<asrwt>0</asrwt>
<pdfrwt beam="1">  1       21 0.31695201E-01 0.45315211E+03</pdfrwt>
<pdfrwt beam="2">  1       21 0.35028108E-01 0.45315211E+03</pdfrwt>
<totfact> 0.69661243E+04</totfact>
</mgrwt>
</event>
<event>
 7    0  0.4709932E-002  0.4545389E+03  0.7546771E-02  0.1026377E+00
         21   -1    0    0  502  501  0.00000000000E+00  0.00000000000E+00  0.12878614628E+03  0.12878614628E+03  0.00000000000E+00 0.  1.
         21   -1    0    0  501  502 -0.00000000000E+00 -0.00000000000E+00 -0.40106332223E+03  0.40106332223E+03  0.00000000000E+00 0.  1.
      99926    2    1    2    0    0  0.00000000000E+00  0.00000000000E+00 -0.27227717595E+03  0.52984946851E+03  0.45453888583E+03 0.  0.
      99925    2    3    3    0    0 -0.17772428760E+02 -0.33389566162E+02 -0.29523875373E+03  0.39716388336E+03  0.26294962671E+03 0.  0.
         25    1    3    3    0    0  0.17772428760E+02  0.33389566162E+02  0.22961577779E+02  0.13268558515E+03  0.12509000000E+03 0.  0.
         25    1    4    4    0    0 -0.25783888884E+02 -0.70540721754E+01 -0.94468153315E+02  0.15901669394E+03  0.12509000000E+03 0.  0.
         25    1    4    4    0    0  0.80114601247E+01 -0.26335493986E+02 -0.20077060042E+03  0.23814718942E+03  0.12509000000E+03 0.  0.
<mgrwt>
<rscale>  2 0.45453889E+03</rscale>
<asrwt>0</asrwt>
<pdfrwt beam="1">  1       21 0.18939139E-01 0.45453889E+03</pdfrwt>
<pdfrwt beam="2">  1       21 0.58979900E-01 0.45453889E+03</pdfrwt>
<totfact> 0.63448292E+04</totfact>
</mgrwt>
</event>
<event>
 6    0  0.4709932E-002  0.4625575E+03  0.7546771E-02  0.1024042E+00
         21   -1    0    0  502  501  0.00000000000E+00  0.00000000000E+00  0.11371285883E+04  0.11371285883E+04  0.00000000000E+00 0. -1.
         21   -1    0    0  501  502 -0.00000000000E+00 -0.00000000000E+00 -0.47039408043E+02  0.47039408043E+02  0.00000000000E+00 0. -1.
      99926    2    1    2    0    0  0.00000000000E+00  0.00000000000E+00  0.10900891802E+04  0.11841679963E+04  0.46255748037E+03 0.  0.
         25    1    3    3    0    0 -0.44548353224E+02 -0.12907974169E+02  0.20430292159E+03  0.24400484308E+03  0.12509000000E+03 0.  0.
         25    1    3    3    0    0  0.37055533790E+02 -0.43919122087E+02  0.67178053881E+03  0.68573945657E+03  0.12509000000E+03 0.  0.
         25    1    3    3    0    0  0.74928194336E+01  0.56827096255E+02  0.21400571984E+03  0.25442369669E+03  0.12509000000E+03 0.  0.
<mgrwt>
<rscale>  2 0.46255748E+03</rscale>
<asrwt>0</asrwt>
<pdfrwt beam="1">  1       21 0.16722477E+00 0.46255748E+03</pdfrwt>
<pdfrwt beam="2">  1       21 0.69175608E-02 0.46255748E+03</pdfrwt>
<totfact> 0.30807449E+04</totfact>
</mgrwt>
</event>
<event>
 7    0  0.4709932E-002  0.4533456E+03  0.7546771E-02  0.1026729E+00
         21   -1    0    0  502  501  0.00000000000E+00  0.00000000000E+00  0.83314210056E+03  0.83314210056E+03  0.00000000000E+00 0. -1.
         21   -1    0    0  501  502 -0.00000000000E+00 -0.00000000000E+00 -0.61670816555E+02  0.61670816555E+02  0.00000000000E+00 0. -1.
      99926    2    1    2    0    0  0.00000000000E+00  0.00000000000E+00  0.77147128401E+03  0.89481291712E+03  0.45334557965E+03 0.  0.
      99925    2    3    3    0    0 -0.28190693102E+02  0.10446395192E+03  0.52939601431E+03  0.60163144307E+03  0.26456156351E+03 0.  0.
         25    1    4    4    0    0  0.10806105773E+00  0.91789989346E+02  0.32246527367E+03  0.35785021258E+03  0.12509000000E+03 0.  0.
         25    1    4    4    0    0 -0.28298754159E+02  0.12673962576E+02  0.20693074065E+03  0.24378123049E+03  0.12509000000E+03 0.  0.
         25    1    3    3    0    0  0.28190693102E+02 -0.10446395192E+03  0.24207526969E+03  0.29318147405E+03  0.12509000000E+03 0.  0.
<mgrwt>
<rscale>  2 0.45334558E+03</rscale>
<asrwt>0</asrwt>
<pdfrwt beam="1">  1       21 0.12252089E+00 0.45334558E+03</pdfrwt>
<pdfrwt beam="2">  1       21 0.90692382E-02 0.45334558E+03</pdfrwt>
<totfact> 0.44026276E+04</totfact>
</mgrwt>
</event>
<event>
 7    0  0.4709932E-002  0.4467214E+03  0.7546771E-02  0.1028704E+00
         21   -1    0    0  502  501  0.00000000000E+00  0.00000000000E+00  0.23193743870E+02  0.23193743870E+02  0.00000000000E+00 0. -1.
         21   -1    0    0  501  502 -0.00000000000E+00 -0.00000000000E+00 -0.21510107140E+04  0.21510107140E+04  0.00000000000E+00 0. -1.
      99926    2    1    2    0    0  0.00000000000E+00  0.00000000000E+00 -0.21278169701E+04  0.21742044579E+04  0.44672135190E+03 0.  0.
      99925    2    3    3    0    0  0.89842191852E+02  0.36437541748E+02 -0.11493860980E+04  0.11830567426E+04  0.26293638015E+03 0.  0.
         25    1    4    4    0    0  0.77284185761E+02 -0.23069771155E+01 -0.66991759517E+03  0.68586825261E+03  0.12509000000E+03 0.  0.
         25    1    3    3    0    0 -0.89842191852E+02 -0.36437541748E+02 -0.97843087212E+03  0.99114771528E+03  0.12509000000E+03 0.  0.
         25    1    4    4    0    0  0.12558006091E+02  0.38744518863E+02 -0.47946850284E+03  0.49718848999E+03  0.12509000000E+03 0.  0.
<mgrwt>
<rscale>  2 0.44672135E+03</rscale>
<asrwt>0</asrwt>
<pdfrwt beam="1">  1       21 0.34108445E-02 0.44672135E+03</pdfrwt>
<pdfrwt beam="2">  1       21 0.31632512E+00 0.44672135E+03</pdfrwt>
<totfact> 0.11809754E+04</totfact>
</mgrwt>
</event>
<event>
 6    0  0.4709932E-002  0.4502565E+03  0.7546771E-02  0.1027646E+00
         21   -1    0    0  502  501  0.00000000000E+00  0.00000000000E+00  0.48537674822E+02  0.48537674822E+02  0.00000000000E+00 0.  1.
         21   -1    0    0  501  502 -0.00000000000E+00 -0.00000000000E+00 -0.10441935670E+04  0.10441935670E+04  0.00000000000E+00 0.  1.
      99926    2    1    2    0    0 -0.71054273576E-14  0.00000000000E+00 -0.99565589216E+03  0.10927312418E+04  0.45025649493E+03 0.  0.
         25    1    3    3    0    0  0.62980230674E+02  0.64839670663E+02 -0.50158359079E+03  0.52478976647E+03  0.12509000000E+03 0.  0.
         25    1    3    3    0    0  0.44696679352E+00 -0.61808852906E+02 -0.23374068283E+03  0.27221820106E+03  0.12509000000E+03 0.  0.
         25    1    3    3    0    0 -0.63427197467E+02 -0.30308177570E+01 -0.26033161854E+03  0.29572327428E+03  0.12509000000E+03 0.  0.
<mgrwt>
<rscale>  2 0.45025649E+03</rscale>
<asrwt>0</asrwt>
<pdfrwt beam="1">  1       21 0.71378934E-02 0.45025649E+03</pdfrwt>
<pdfrwt beam="2">  1       21 0.15355788E+00 0.45025649E+03</pdfrwt>
<totfact> 0.37101441E+04</totfact>
</mgrwt>
</event>
<event>
 7    0  0.4709932E-002  0.4327297E+03  0.7546771E-02  0.1033001E+00
         21   -1    0    0  502  501  0.00000000000E+00  0.00000000000E+00  0.31439882510E+02  0.31439882510E+02  0.00000000000E+00 0. -1.
         21   -1    0    0  501  502 -0.00000000000E+00 -0.00000000000E+00 -0.14889922048E+04  0.14889922048E+04  0.00000000000E+00 0. -1.
      99926    2    1    2    0    0  0.00000000000E+00  0.00000000000E+00 -0.14575523223E+04  0.15204320873E+04  0.43272966147E+03 0.  0.
      99925    2    3    3    0    0 -0.42671279152E+02 -0.79333351381E+02 -0.97645692921E+03  0.10152440985E+04  0.26294072757E+03 0.  0.
         25    1    4    4    0    0  0.27086663006E+01 -0.51377538608E+02 -0.59790329455E+03  0.61301129360E+03  0.12509000000E+03 0.  0.
         25    1    3    3    0    0  0.42671279152E+02  0.79333351381E+02 -0.48109539311E+03  0.50518798885E+03  0.12509000000E+03 0.  0.
         25    1    4    4    0    0 -0.45379945453E+02 -0.27955812773E+02 -0.37855363466E+03  0.40223280489E+03  0.12509000000E+03 0.  0.
<mgrwt>
<rscale>  2 0.43272966E+03</rscale>
<asrwt>0</asrwt>
<pdfrwt beam="1">  1       21 0.46235102E-02 0.43272966E+03</pdfrwt>
<pdfrwt beam="2">  1       21 0.21896954E+00 0.43272966E+03</pdfrwt>
<totfact> 0.27787567E+04</totfact>
</mgrwt>
</event>
<event>
 7    0  0.4709932E-002  0.4602402E+03  0.7546771E-02  0.1024712E+00
         21   -1    0    0  502  501  0.00000000000E+00  0.00000000000E+00  0.58386596002E+02  0.58386596002E+02  0.00000000000E+00 0. -1.
         21   -1    0    0  501  502 -0.00000000000E+00 -0.00000000000E+00 -0.90697619772E+03  0.90697619772E+03  0.00000000000E+00 0. -1.
      99926    2    1    2    0    0  0.00000000000E+00  0.00000000000E+00 -0.84858960172E+03  0.96536279372E+03  0.46024016704E+03 0.  0.
      99925    2    3    3    0    0  0.25673606635E+02  0.10737133283E+03 -0.44342378544E+03  0.52719092793E+03  0.26290280297E+03 0.  0.
         25    1    3    3    0    0 -0.25673606635E+02 -0.10737133283E+03 -0.40516581627E+03  0.43817186579E+03  0.12509000000E+03 0.  0.
         25    1    4    4    0    0 -0.34399055025E+01  0.13199841006E+02 -0.20067771954E+03  0.23686520212E+03  0.12509000000E+03 0.  0.
         25    1    4    4    0    0  0.29113512138E+02  0.94171491823E+02 -0.24274606590E+03  0.29032572581E+03  0.12509000000E+03 0.  0.
<mgrwt>
<rscale>  2 0.46024017E+03</rscale>
<asrwt>0</asrwt>
<pdfrwt beam="1">  1       21 0.85862648E-02 0.46024017E+03</pdfrwt>
<pdfrwt beam="2">  1       21 0.13337884E+00 0.46024017E+03</pdfrwt>
<totfact> 0.38906311E+04</totfact>
</mgrwt>
</event>
<event>
 7    0  0.4709932E-002  0.4767706E+03  0.7546771E-02  0.1020026E+00
         21   -1    0    0  502  501  0.00000000000E+00  0.00000000000E+00  0.67830609917E+03  0.67830609917E+03  0.00000000000E+00 0. -1.
         21   -1    0    0  501  502 -0.00000000000E+00 -0.00000000000E+00 -0.83778614325E+02  0.83778614325E+02  0.00000000000E+00 0. -1.
      99926    2    1    2    0    0 -0.14210854715E-13  0.00000000000E+00  0.59452748484E+03  0.76208471349E+03  0.47677057408E+03 0.  0.
      99925    2    3    3    0    0  0.84732463880E+02 -0.65138256798E+02  0.49221734528E+03  0.56833886014E+03  0.26326519333E+03 0.  0.
         25    1    4    4    0    0  0.45096754181E+02 -0.56310899986E+02  0.32471131979E+03  0.35537245812E+03  0.12509000000E+03 0.  0.
         25    1    3    3    0    0 -0.84732463880E+02  0.65138256798E+02  0.10231013956E+03  0.19374585335E+03  0.12509000000E+03 0.  0.
         25    1    4    4    0    0  0.39635709699E+02 -0.88273568115E+01  0.16750602549E+03  0.21296640201E+03  0.12509000000E+03 0.  0.
<mgrwt>
<rscale>  2 0.47677057E+03</rscale>
<asrwt>0</asrwt>
<pdfrwt beam="1">  1       21 0.99750894E-01 0.47677057E+03</pdfrwt>
<pdfrwt beam="2">  1       21 0.12320385E-01 0.47677057E+03</pdfrwt>
<totfact> 0.41999573E+04</totfact>
</mgrwt>
</event>
<event>
 7    0  0.4709932E-002  0.4437485E+03  0.7546771E-02  0.1029603E+00
         21   -1    0    0  502  501  0.00000000000E+00  0.00000000000E+00  0.11063561230E+03  0.11063561230E+03  0.00000000000E+00 0.  1.
         21   -1    0    0  501  502 -0.00000000000E+00 -0.00000000000E+00 -0.44495786451E+03  0.44495786451E+03  0.00000000000E+00 0.  1.
      99926    2    1    2    0    0  0.00000000000E+00  0.00000000000E+00 -0.33432225221E+03  0.55559347682E+03  0.44374851341E+03 0.  0.
      99925    2    3    3    0    0  0.39618434084E+02  0.93809285139E+02 -0.22269322101E+03  0.35943448262E+03  0.26311798554E+03 0.  0.
         25    1    4    4    0    0  0.73922225715E+01  0.53210965624E+01 -0.10465566105E+03  0.16335015920E+03  0.12509000000E+03 0.  0.
         25    1    3    3    0    0 -0.39618434084E+02 -0.93809285139E+02 -0.11162903120E+03  0.19615899420E+03  0.12509000000E+03 0.  0.
         25    1    4    4    0    0  0.32226211513E+02  0.88488188577E+02 -0.11803755996E+03  0.19608432341E+03  0.12509000000E+03 0.  0.
<mgrwt>
<rscale>  2 0.44374851E+03</rscale>
<asrwt>0</asrwt>
<pdfrwt beam="1">  1       21 0.16269943E-01 0.44374851E+03</pdfrwt>
<pdfrwt beam="2">  1       21 0.65434980E-01 0.44374851E+03</pdfrwt>
<totfact> 0.67290663E+04</totfact>
</mgrwt>
</event>
<event>
 7    0  0.4709932E-002  0.4402923E+03  0.7546771E-02  0.1030657E+00
         21   -1    0    0  502  501  0.00000000000E+00  0.00000000000E+00  0.30870664085E+03  0.30870664085E+03  0.00000000000E+00 0. -1.
         21   -1    0    0  501  502 -0.00000000000E+00 -0.00000000000E+00 -0.15699153187E+03  0.15699153187E+03  0.00000000000E+00 0. -1.
      99926    2    1    2    0    0 -0.35527136788E-14 -0.14210854715E-13  0.15171510899E+03  0.46569817272E+03  0.44029230493E+03 0.  0.
      99925    2    3    3    0    0 -0.16133820051E+02 -0.95916632348E+02  0.11463295102E+03  0.30296251267E+03  0.26303092996E+03 0.  0.
         25    1    4    4    0    0 -0.48713934888E+02 -0.49298198614E+02  0.56699323131E+02  0.15383654047E+03  0.12509000000E+03 0.  0.
         25    1    3    3    0    0  0.16133820051E+02  0.95916632348E+02  0.37082157967E+02  0.16273566004E+03  0.12509000000E+03 0.  0.
         25    1    4    4    0    0  0.32580114837E+02 -0.46618433734E+02  0.57933627888E+02  0.14912597221E+03  0.12509000000E+03 0.  0.
<mgrwt>
<rscale>  2 0.44029230E+03</rscale>
<asrwt>0</asrwt>
<pdfrwt beam="1">  1       21 0.45398035E-01 0.44029230E+03</pdfrwt>
<pdfrwt beam="2">  1       21 0.23086990E-01 0.44029230E+03</pdfrwt>
<totfact> 0.76278182E+04</totfact>
</mgrwt>
</event>
<event>
 7    0  0.4709932E-002  0.4510052E+03  0.7546771E-02  0.1027423E+00
         21   -1    0    0  502  501  0.00000000000E+00  0.00000000000E+00  0.83012984315E+02  0.83012984315E+02  0.00000000000E+00 0.  1.
         21   -1    0    0  501  502 -0.00000000000E+00 -0.00000000000E+00 -0.61257178057E+03  0.61257178057E+03  0.00000000000E+00 0.  1.
      99926    2    1    2    0    0  0.00000000000E+00  0.00000000000E+00 -0.52955879626E+03  0.69558476489E+03  0.45100515124E+03 0.  0.
      99925    2    3    3    0    0  0.94119994008E+02  0.42290519283E+02 -0.27878708734E+03  0.39695285202E+03  0.26306323453E+03 0.  0.
         25    1    3    3    0    0 -0.94119994008E+02 -0.42290519283E+02 -0.25077170892E+03  0.29863191287E+03  0.12509000000E+03 0.  0.
         25    1    4    4    0    0  0.36348396498E+02  0.47147019452E+02 -0.18096444324E+03  0.22790279768E+03  0.12509000000E+03 0.  0.
         25    1    4    4    0    0  0.57771597510E+02 -0.48565001694E+01 -0.97822644098E+02  0.16905005434E+03  0.12509000000E+03 0.  0.
<mgrwt>
<rscale>  2 0.45100515E+03</rscale>
<asrwt>0</asrwt>
<pdfrwt beam="1">  1       21 0.12207791E-01 0.45100515E+03</pdfrwt>
<pdfrwt beam="2">  1       21 0.90084089E-01 0.45100515E+03</pdfrwt>
<totfact> 0.54847643E+04</totfact>
</mgrwt>
</event>
<event>
 7    0  0.4709932E-002  0.4143614E+03  0.7546771E-02  0.1038917E+00
         21   -1    0    0  502  501  0.00000000000E+00  0.00000000000E+00  0.69176462822E+03  0.69176462822E+03  0.00000000000E+00 0.  1.
         21   -1    0    0  501  502 -0.00000000000E+00 -0.00000000000E+00 -0.62049782146E+02  0.62049782146E+02  0.00000000000E+00 0.  1.
      99926    2    1    2    0    0 -0.71054273576E-14 -0.71054273576E-14  0.62971484607E+03  0.75381441036E+03  0.41436140977E+03 0.  0.
      99925    2    3    3    0    0  0.36095527221E+02  0.47279199267E+02  0.47475103715E+03  0.54596951640E+03  0.26297519998E+03 0.  0.
         25    1    4    4    0    0 -0.17098966547E+02  0.38334582753E+02  0.26188859568E+03  0.29324914243E+03  0.12509000000E+03 0.  0.
         25    1    3    3    0    0 -0.36095527221E+02 -0.47279199267E+02  0.15496380893E+03  0.20784489396E+03  0.12509000000E+03 0.  0.
         25    1    4    4    0    0  0.53194493768E+02  0.89446165140E+01  0.21286244147E+03  0.25272037397E+03  0.12509000000E+03 0.  0.
<mgrwt>
<rscale>  2 0.41436141E+03</rscale>
<asrwt>0</asrwt>
<pdfrwt beam="1">  1       21 0.10173009E+00 0.41436141E+03</pdfrwt>
<pdfrwt beam="2">  1       21 0.91249683E-02 0.41436141E+03</pdfrwt>
<totfact> 0.69839615E+04</totfact>
</mgrwt>
</event>
<event>
 6    0  0.4709932E-002  0.4480592E+03  0.7546771E-02  0.1028302E+00
         21   -1    0    0  502  501  0.00000000000E+00  0.00000000000E+00  0.33542383397E+02  0.33542383397E+02  0.00000000000E+00 0. -1.
         21   -1    0    0  501  502 -0.00000000000E+00 -0.00000000000E+00 -0.14962941145E+04  0.14962941145E+04  0.00000000000E+00 0. -1.
      99926    2    1    2    0    0  0.00000000000E+00  0.00000000000E+00 -0.14627517311E+04  0.15298364979E+04  0.44805924100E+03 0.  0.
         25    1    3    3    0    0 -0.51068207211E+02  0.52805236642E+02 -0.54248481913E+03  0.56154576117E+03  0.12509000000E+03 0.  0.
         25    1    3    3    0    0 -0.34659371500E+01  0.17124786896E+02 -0.60077779376E+03  0.61391101686E+03  0.12509000000E+03 0.  0.
         25    1    3    3    0    0  0.54534144361E+02 -0.69930023538E+02 -0.31948911820E+03  0.35437971985E+03  0.12509000000E+03 0.  0.
<mgrwt>
<rscale>  2 0.44805924E+03</rscale>
<asrwt>0</asrwt>
<pdfrwt beam="1">  1       21 0.49327031E-02 0.44805924E+03</pdfrwt>
<pdfrwt beam="2">  1       21 0.22004327E+00 0.44805924E+03</pdfrwt>
<totfact> 0.24343348E+04</totfact>
</mgrwt>
</event>
<event>
 7    0  0.4709932E-002  0.4348851E+03  0.7546771E-02  0.1032328E+00
         21   -1    0    0  502  501  0.00000000000E+00  0.00000000000E+00  0.25784172543E+02  0.25784172543E+02  0.00000000000E+00 0.  1.
         21   -1    0    0  501  502 -0.00000000000E+00 -0.00000000000E+00 -0.18337319552E+04  0.18337319552E+04  0.00000000000E+00 0.  1.
      99926    2    1    2    0    0  0.00000000000E+00  0.00000000000E+00 -0.18079477827E+04  0.18595161278E+04  0.43488509347E+03 0.  0.
      99925    2    3    3    0    0  0.80383097039E+02  0.18002006267E+02 -0.97411751061E+03  0.10123408535E+04  0.26295163961E+03 0.  0.
         25    1    3    3    0    0 -0.80383097039E+02 -0.18002006267E+02 -0.83383027207E+03  0.84717527421E+03  0.12509000000E+03 0.  0.
         25    1    4    4    0    0  0.55631171116E+02  0.28915340875E+02 -0.38926609598E+03  0.41365024564E+03  0.12509000000E+03 0.  0.
         25    1    4    4    0    0  0.24751925923E+02 -0.10913334608E+02 -0.58485141463E+03  0.59869060791E+03  0.12509000000E+03 0.  0.
<mgrwt>
<rscale>  2 0.43488509E+03</rscale>
<asrwt>0</asrwt>
<pdfrwt beam="1">  1       21 0.37917894E-02 0.43488509E+03</pdfrwt>
<pdfrwt beam="2">  1       21 0.26966651E+00 0.43488509E+03</pdfrwt>
<totfact> 0.18929105E+04</totfact>
</mgrwt>
</event>
<event>
 7    0  0.4709932E-002  0.4511918E+03  0.7546771E-02  0.1027367E+00
         21   -1    0    0  502  501  0.00000000000E+00  0.00000000000E+00  0.72666325977E+03  0.72666325977E+03  0.00000000000E+00 0.  1.
         21   -1    0    0  501  502 -0.00000000000E+00 -0.00000000000E+00 -0.70037256501E+02  0.70037256501E+02  0.00000000000E+00 0.  1.
      99926    2    1    2    0    0 -0.14210854715E-13  0.00000000000E+00  0.65662600327E+03  0.79670051627E+03  0.45119176018E+03 0.  0.
      99925    2    3    3    0    0 -0.98956307115E+02  0.19323462962E+02  0.33872071361E+03  0.44050249798E+03  0.26295433437E+03 0.  0.
         25    1    4    4    0    0 -0.83677056689E+02  0.25926924226E+02  0.15478179815E+03  0.21743727453E+03  0.12509000000E+03 0.  0.
         25    1    4    4    0    0 -0.15279250426E+02 -0.66034612648E+01  0.18393891546E+03  0.22306522346E+03  0.12509000000E+03 0.  0.
         25    1    3    3    0    0  0.98956307115E+02 -0.19323462962E+02  0.31790528966E+03  0.35619801829E+03  0.12509000000E+03 0.  0.
<mgrwt>
<rscale>  2 0.45119176E+03</rscale>
<asrwt>0</asrwt>
<pdfrwt beam="1">  1       21 0.10686224E+00 0.45119176E+03</pdfrwt>
<pdfrwt beam="2">  1       21 0.10299597E-01 0.45119176E+03</pdfrwt>
<totfact> 0.49384318E+04</totfact>
</mgrwt>
</event>
<event>
 7    0  0.4709932E-002  0.4557957E+03  0.7546771E-02  0.1026008E+00
         21   -1    0    0  502  501  0.00000000000E+00  0.00000000000E+00  0.82239078698E+02  0.82239078698E+02  0.00000000000E+00 0.  1.
         21   -1    0    0  501  502 -0.00000000000E+00 -0.00000000000E+00 -0.63154210852E+03  0.63154210852E+03  0.00000000000E+00 0.  1.
      99926    2    1    2    0    0  0.00000000000E+00 -0.71054273576E-14 -0.54930302983E+03  0.71378118722E+03  0.45579574883E+03 0.  0.
      99925    2    3    3    0    0 -0.59922711898E+02 -0.54799412819E+02 -0.47047085517E+03  0.54509293360E+03  0.26303949068E+03 0.  0.
         25    1    4    4    0    0  0.10679652893E+02 -0.34392330704E+02 -0.22688593768E+03  0.26157527447E+03  0.12509000000E+03 0.  0.
         25    1    4    4    0    0 -0.70602364791E+02 -0.20407082115E+02 -0.24358491749E+03  0.28351765914E+03  0.12509000000E+03 0.  0.
         25    1    3    3    0    0  0.59922711898E+02  0.54799412819E+02 -0.78832174660E+02  0.16868825362E+03  0.12509000000E+03 0.  0.
<mgrwt>
<rscale>  2 0.45579575E+03</rscale>
<asrwt>0</asrwt>
<pdfrwt beam="1">  1       21 0.12093982E-01 0.45579575E+03</pdfrwt>
<pdfrwt beam="2">  1       21 0.92873839E-01 0.45579575E+03</pdfrwt>
<totfact> 0.51835872E+04</totfact>
</mgrwt>
</event>
<event>
 7    0  0.4709932E-002  0.4145446E+03  0.7546771E-02  0.1038857E+00
         21   -1    0    0  502  501  0.00000000000E+00  0.00000000000E+00  0.40873905354E+02  0.40873905354E+02  0.00000000000E+00 0.  1.
         21   -1    0    0  501  502 -0.00000000000E+00 -0.00000000000E+00 -0.10510815117E+04  0.10510815117E+04  0.00000000000E+00 0.  1.
      99926    2    1    2    0    0  0.00000000000E+00  0.35527136788E-14 -0.10102076064E+04  0.10919554171E+04  0.41454459944E+03 0.  0.
      99925    2    3    3    0    0 -0.62203696263E+02 -0.23872412472E+02 -0.61989135718E+03  0.67670431908E+03  0.26310501487E+03 0.  0.
         25    1    4    4    0    0 -0.11778466566E+02  0.56733153651E+01 -0.21702388139E+03  0.25083419220E+03  0.12509000000E+03 0.  0.
         25    1    3    3    0    0  0.62203696263E+02  0.23872412472E+02 -0.39031624920E+03  0.41525109801E+03  0.12509000000E+03 0.  0.
         25    1    4    4    0    0 -0.50425229698E+02 -0.29545727837E+02 -0.40286747578E+03  0.42587012688E+03  0.12509000000E+03 0.  0.
<mgrwt>
<rscale>  2 0.41454460E+03</rscale>
<asrwt>0</asrwt>
<pdfrwt beam="1">  1       21 0.60108688E-02 0.41454460E+03</pdfrwt>
<pdfrwt beam="2">  1       21 0.15457080E+00 0.41454460E+03</pdfrwt>
<totfact> 0.49703894E+04</totfact>
</mgrwt>
</event>
<event>
 7    0  0.4709932E-002  0.4537846E+03  0.7546771E-02  0.1026599E+00
         21   -1    0    0  502  501  0.00000000000E+00  0.00000000000E+00  0.17643484733E+03  0.17643484733E+03  0.00000000000E+00 0. -1.
         21   -1    0    0  501  502 -0.00000000000E+00 -0.00000000000E+00 -0.29177979870E+03  0.29177979870E+03  0.00000000000E+00 0. -1.
      99926    2    1    2    0    0  0.00000000000E+00  0.00000000000E+00 -0.11534495137E+03  0.46821464604E+03  0.45378463720E+03 0.  0.
      99925    2    3    3    0    0 -0.93596089774E+02  0.55640982571E+02 -0.99978541978E+02  0.30166200691E+03  0.26296028330E+03 0.  0.
         25    1    4    4    0    0 -0.74716688038E+02  0.60227334860E+02 -0.47898144738E+02  0.16477759467E+03  0.12509000000E+03 0.  0.
         25    1    3    3    0    0  0.93596089774E+02 -0.55640982571E+02 -0.15366409395E+02  0.16655263913E+03  0.12509000000E+03 0.  0.
         25    1    4    4    0    0 -0.18879401736E+02 -0.45863522893E+01 -0.52080397240E+02  0.13688441224E+03  0.12509000000E+03 0.  0.
<mgrwt>
<rscale>  2 0.45378464E+03</rscale>
<asrwt>0</asrwt>
<pdfrwt beam="1">  1       21 0.25946301E-01 0.45378464E+03</pdfrwt>
<pdfrwt beam="2">  1       21 0.42908794E-01 0.45378464E+03</pdfrwt>
<totfact> 0.68224150E+04</totfact>
</mgrwt>
</event>
<event>
 7    0  0.4709932E-002  0.4582520E+03  0.7546771E-02  0.1025289E+00
         21   -1    0    0  502  501  0.00000000000E+00  0.00000000000E+00  0.73660430606E+02  0.73660430606E+02  0.00000000000E+00 0. -1.
         21   -1    0    0  501  502 -0.00000000000E+00 -0.00000000000E+00 -0.71271265793E+03  0.71271265793E+03  0.00000000000E+00 0. -1.
      99926    2    1    2    0    0  0.35527136788E-14 -0.14210854715E-13 -0.63905222732E+03  0.78637308853E+03  0.45825198867E+03 0.  0.
      99925    2    3    3    0    0 -0.18012952545E+02  0.64922315392E+02 -0.23745913906E+03  0.36038730222E+03  0.26258863530E+03 0.  0.
         25    1    3    3    0    0  0.18012952545E+02 -0.64922315392E+02 -0.40159308827E+03  0.42598578631E+03  0.12509000000E+03 0.  0.
         25    1    4    4    0    0 -0.25541755410E+02  0.49114542418E+02 -0.79785288987E+02  0.15835978020E+03  0.12509000000E+03 0.  0.
         25    1    4    4    0    0  0.75288028651E+01  0.15807772974E+02 -0.15767385007E+03  0.20202752202E+03  0.12509000000E+03 0.  0.
<mgrwt>
<rscale>  2 0.45825199E+03</rscale>
<asrwt>0</asrwt>
<pdfrwt beam="1">  1       21 0.10832417E-01 0.45825199E+03</pdfrwt>
<pdfrwt beam="2">  1       21 0.10481068E+00 0.45825199E+03</pdfrwt>
<totfact> 0.47214350E+04</totfact>
</mgrwt>
</event>
<event>
 7    0  0.4709932E-002  0.4496852E+03  0.7546771E-02  0.1027816E+00
         21   -1    0    0  502  501  0.00000000000E+00  0.00000000000E+00  0.19436189229E+03  0.19436189229E+03  0.00000000000E+00 0. -1.
         21   -1    0    0  501  502 -0.00000000000E+00 -0.00000000000E+00 -0.26010344882E+03  0.26010344882E+03  0.00000000000E+00 0. -1.
      99926    2    1    2    0    0  0.00000000000E+00  0.00000000000E+00 -0.65741556537E+02  0.45446534111E+03  0.44968521659E+03 0.  0.
      99925    2    3    3    0    0 -0.52074155914E+02 -0.94537929254E+02 -0.33944571666E+02  0.28621643583E+03  0.26290393000E+03 0.  0.
         25    1    4    4    0    0 -0.35695309684E+02 -0.84558622726E+02  0.15490699992E+00  0.15515104868E+03  0.12509000000E+03 0.  0.
         25    1    3    3    0    0  0.52074155914E+02  0.94537929254E+02 -0.31796984871E+02  0.16824890528E+03  0.12509000000E+03 0.  0.
         25    1    4    4    0    0 -0.16378846231E+02 -0.99793065279E+01 -0.34099478666E+02  0.13106538715E+03  0.12509000000E+03 0.  0.
<mgrwt>
<rscale>  2 0.44968522E+03</rscale>
<asrwt>0</asrwt>
<pdfrwt beam="1">  1       21 0.28582631E-01 0.44968522E+03</pdfrwt>
<pdfrwt beam="2">  1       21 0.38250507E-01 0.44968522E+03</pdfrwt>
<totfact> 0.71571521E+04</totfact>
</mgrwt>
</event>
<event>
 7    0  0.4709932E-002  0.4572568E+03  0.7546771E-02  0.1025580E+00
         21   -1    0    0  502  501  0.00000000000E+00  0.00000000000E+00  0.12143254488E+03  0.12143254488E+03  0.00000000000E+00 0.  1.
         21   -1    0    0  501  502 -0.00000000000E+00 -0.00000000000E+00 -0.43045251215E+03  0.43045251215E+03  0.00000000000E+00 0.  1.
      99926    2    1    2    0    0  0.00000000000E+00 -0.33306690739E-14 -0.30901996727E+03  0.55188505703E+03  0.45725679437E+03 0.  0.
      99925    2    3    3    0    0 -0.93404341653E+02  0.16005510143E+01 -0.27491115732E+03  0.39207938811E+03  0.26348276861E+03 0.  0.
         25    1    4    4    0    0 -0.21588345223E+02  0.28132635196E+02 -0.10136599494E+03  0.16486380695E+03  0.12509000000E+03 0.  0.
         25    1    4    4    0    0 -0.71815996430E+02 -0.26532084181E+02 -0.17354516238E+03  0.22721558116E+03  0.12509000000E+03 0.  0.
         25    1    3    3    0    0  0.93404341653E+02 -0.16005510143E+01 -0.34108809947E+02  0.15980566892E+03  0.12509000000E+03 0.  0.
<mgrwt>
<rscale>  2 0.45725679E+03</rscale>
<asrwt>0</asrwt>
<pdfrwt beam="1">  1       21 0.17857727E-01 0.45725679E+03</pdfrwt>
<pdfrwt beam="2">  1       21 0.63301840E-01 0.45725679E+03</pdfrwt>
<totfact> 0.60651915E+04</totfact>
</mgrwt>
</event>
<event>
 7    0  0.4709932E-002  0.4423950E+03  0.7546771E-02  0.1030015E+00
         21   -1    0    0  502  501  0.00000000000E+00  0.00000000000E+00  0.10523040144E+03  0.10523040144E+03  0.00000000000E+00 0. -1.
         21   -1    0    0  501  502 -0.00000000000E+00 -0.00000000000E+00 -0.46496376747E+03  0.46496376747E+03  0.00000000000E+00 0. -1.
      99926    2    1    2    0    0  0.00000000000E+00  0.00000000000E+00 -0.35973336603E+03  0.57019416891E+03  0.44239495434E+03 0.  0.
      99925    2    3    3    0    0 -0.95404078661E+02 -0.11215948211E+02 -0.26915425142E+03  0.38831558352E+03  0.26290158924E+03 0.  0.
         25    1    4    4    0    0 -0.83892223187E+01  0.74268234776E+01 -0.10662451851E+03  0.16474778544E+03  0.12509000000E+03 0.  0.
         25    1    3    3    0    0  0.95404078661E+02  0.11215948211E+02 -0.90579114603E+02  0.18187858539E+03  0.12509000000E+03 0.  0.
         25    1    4    4    0    0 -0.87014856342E+02 -0.18642771688E+02 -0.16252973291E+03  0.22356779808E+03  0.12509000000E+03 0.  0.
<mgrwt>
<rscale>  2 0.44239495E+03</rscale>
<asrwt>0</asrwt>
<pdfrwt beam="1">  1       21 0.15475059E-01 0.44239495E+03</pdfrwt>
<pdfrwt beam="2">  1       21 0.68377024E-01 0.44239495E+03</pdfrwt>
<totfact> 0.66982400E+04</totfact>
</mgrwt>
</event>
<event>
 7    0  0.4709932E-002  0.4572489E+03  0.7546771E-02  0.1025582E+00
         21   -1    0    0  502  501  0.00000000000E+00  0.00000000000E+00  0.24272922438E+03  0.24272922438E+03  0.00000000000E+00 0.  1.
         21   -1    0    0  501  502 -0.00000000000E+00 -0.00000000000E+00 -0.21533933019E+03  0.21533933019E+03  0.00000000000E+00 0.  1.
      99926    2    1    2    0    0  0.00000000000E+00  0.00000000000E+00  0.27389894191E+02  0.45806855456E+03  0.45724894136E+03 0.  0.
      99925    2    3    3    0    0  0.21710275552E+02 -0.46937277589E+02  0.12003862285E+03  0.29403886483E+03  0.26339160762E+03 0.  0.
         25    1    4    4    0    0 -0.98144546754E+01 -0.56391265127E+02  0.46283481179E+02  0.14514119689E+03  0.12509000000E+03 0.  0.
         25    1    4    4    0    0  0.31524730227E+02  0.94539875377E+01  0.73755141669E+02  0.14889766794E+03  0.12509000000E+03 0.  0.
         25    1    3    3    0    0 -0.21710275552E+02  0.46937277589E+02 -0.92648728657E+02  0.16402968973E+03  0.12509000000E+03 0.  0.
<mgrwt>
<rscale>  2 0.45724894E+03</rscale>
<asrwt>0</asrwt>
<pdfrwt beam="1">  1       21 0.35695474E-01 0.45724894E+03</pdfrwt>
<pdfrwt beam="2">  1       21 0.31667549E-01 0.45724894E+03</pdfrwt>
<totfact> 0.67109299E+04</totfact>
</mgrwt>
</event>
<event>
 7    0  0.4709932E-002  0.4522769E+03  0.7546771E-02  0.1027045E+00
         21   -1    0    0  502  501  0.00000000000E+00  0.00000000000E+00  0.29628855278E+03  0.29628855278E+03  0.00000000000E+00 0. -1.
         21   -1    0    0  501  502 -0.00000000000E+00 -0.00000000000E+00 -0.17259727396E+03  0.17259727396E+03  0.00000000000E+00 0. -1.
      99926    2    1    2    0    0  0.00000000000E+00 -0.14210854715E-13  0.12369127882E+03  0.46888582675E+03  0.45227689093E+03 0.  0.
      99925    2    3    3    0    0 -0.65781626583E+02 -0.84957057513E+02  0.10584293577E+03  0.30302143796E+03  0.26281997792E+03 0.  0.
         25    1    3    3    0    0  0.65781626583E+02  0.84957057513E+02  0.17848343053E+02  0.16586438878E+03  0.12509000000E+03 0.  0.
         25    1    4    4    0    0 -0.48797998159E+02 -0.60223507014E+01  0.40039743118E+02  0.14024336869E+03  0.12509000000E+03 0.  0.
         25    1    4    4    0    0 -0.16983628424E+02 -0.78934706812E+02  0.65803192649E+02  0.16277806927E+03  0.12509000000E+03 0.  0.
<mgrwt>
<rscale>  2 0.45227689E+03</rscale>
<asrwt>0</asrwt>
<pdfrwt beam="1">  1       21 0.43571846E-01 0.45227689E+03</pdfrwt>
<pdfrwt beam="2">  1       21 0.25381952E-01 0.45227689E+03</pdfrwt>
<totfact> 0.68997230E+04</totfact>
</mgrwt>
</event>
<event>
 7    0  0.4709932E-002  0.4548880E+03  0.7546771E-02  0.1026274E+00
         21   -1    0    0  502  501  0.00000000000E+00  0.00000000000E+00  0.85554463232E+02  0.85554463232E+02  0.00000000000E+00 0. -1.
         21   -1    0    0  501  502 -0.00000000000E+00 -0.00000000000E+00 -0.60465324590E+03  0.60465324590E+03  0.00000000000E+00 0. -1.
      99926    2    1    2    0    0  0.00000000000E+00  0.00000000000E+00 -0.51909878267E+03  0.69020770913E+03  0.45488804730E+03 0.  0.
      99925    2    3    3    0    0 -0.48424207827E+02  0.74438207269E+02 -0.43283528489E+03  0.51421097691E+03  0.26302204151E+03 0.  0.
         25    1    3    3    0    0  0.48424207827E+02 -0.74438207269E+02 -0.86263497774E+02  0.17599673222E+03  0.12509000000E+03 0.  0.
         25    1    4    4    0    0 -0.49364770432E+01  0.40005371475E+02 -0.27848435205E+03  0.30793804733E+03  0.12509000000E+03 0.  0.
         25    1    4    4    0    0 -0.43487730784E+02  0.34432835795E+02 -0.15435093284E+03  0.20627292958E+03  0.12509000000E+03 0.  0.
<mgrwt>
<rscale>  2 0.45488805E+03</rscale>
<asrwt>0</asrwt>
<pdfrwt beam="1">  1       21 0.12581538E-01 0.45488805E+03</pdfrwt>
<pdfrwt beam="2">  1       21 0.88919597E-01 0.45488805E+03</pdfrwt>
<totfact> 0.53485066E+04</totfact>
</mgrwt>
</event>
<event>
 7    0  0.4709932E-002  0.4549978E+03  0.7546771E-02  0.1026242E+00
         21   -1    0    0  502  501  0.00000000000E+00  0.00000000000E+00  0.10053847078E+04  0.10053847078E+04  0.00000000000E+00 0.  1.
         21   -1    0    0  501  502 -0.00000000000E+00 -0.00000000000E+00 -0.51478554365E+02  0.51478554365E+02  0.00000000000E+00 0.  1.
      99926    2    1    2    0    0  0.71054273576E-14 -0.71054273576E-14  0.95390615341E+03  0.10568632621E+04  0.45499780807E+03 0.  0.
      99925    2    3    3    0    0 -0.55773442600E+02  0.61290897012E+02  0.42050964055E+03  0.50276345255E+03  0.26282214608E+03 0.  0.
         25    1    4    4    0    0 -0.84364614611E+01  0.14241294099E+02  0.14008696026E+03  0.18853607844E+03  0.12509000000E+03 0.  0.
         25    1    4    4    0    0 -0.47336981139E+02  0.47049602913E+02  0.28042268029E+03  0.31422737410E+03  0.12509000000E+03 0.  0.
         25    1    3    3    0    0  0.55773442600E+02 -0.61290897012E+02  0.53339651286E+03  0.55409980959E+03  0.12509000000E+03 0.  0.
<mgrwt>
<rscale>  2 0.45499781E+03</rscale>
<asrwt>0</asrwt>
<pdfrwt beam="1">  1       21 0.14785068E+00 0.45499781E+03</pdfrwt>
<pdfrwt beam="2">  1       21 0.75703763E-02 0.45499781E+03</pdfrwt>
<totfact> 0.37027193E+04</totfact>
</mgrwt>
</event>
<event>
 7    0  0.4709932E-002  0.4547499E+03  0.7546771E-02  0.1026315E+00
         21   -1    0    0  502  501  0.00000000000E+00  0.00000000000E+00  0.20509666660E+03  0.20509666660E+03  0.00000000000E+00 0. -1.
         21   -1    0    0  501  502 -0.00000000000E+00 -0.00000000000E+00 -0.25207322732E+03  0.25207322732E+03  0.00000000000E+00 0. -1.
      99926    2    1    2    0    0  0.00000000000E+00  0.17763568394E-14 -0.46976560722E+02  0.45716989392E+03  0.45474994739E+03 0.  0.
      99925    2    3    3    0    0  0.43381605849E+02 -0.15660647822E+02  0.74429389580E+02  0.27685313795E+03  0.26264178332E+03 0.  0.
         25    1    3    3    0    0 -0.43381605849E+02  0.15660647822E+02 -0.12140595030E+03  0.18031675597E+03  0.12509000000E+03 0.  0.
         25    1    4    4    0    0  0.30654790236E+02 -0.44051720957E+02  0.53551044453E+02  0.14627198209E+03  0.12509000000E+03 0.  0.
         25    1    4    4    0    0  0.12726815613E+02  0.28391073135E+02  0.20878345127E+02  0.13058115586E+03  0.12509000000E+03 0.  0.
<mgrwt>
<rscale>  2 0.45474995E+03</rscale>
<asrwt>0</asrwt>
<pdfrwt beam="1">  1       21 0.30161275E-01 0.45474995E+03</pdfrwt>
<pdfrwt beam="2">  1       21 0.37069592E-01 0.45474995E+03</pdfrwt>
<totfact> 0.68523704E+04</totfact>
</mgrwt>
</event>
<event>
 7    0  0.4709932E-002  0.4551066E+03  0.7546771E-02  0.1026210E+00
         21   -1    0    0  502  501  0.00000000000E+00  0.00000000000E+00  0.11627231530E+04  0.11627231530E+04  0.00000000000E+00 0. -1.
         21   -1    0    0  501  502 -0.00000000000E+00 -0.00000000000E+00 -0.44533826425E+02  0.44533826425E+02  0.00000000000E+00 0. -1.
      99926    2    1    2    0    0  0.00000000000E+00  0.00000000000E+00  0.11181893266E+04  0.12072569794E+04  0.45510662959E+03 0.  0.
      99925    2    3    3    0    0  0.73070599530E+02  0.82379670148E+02  0.77268001693E+03  0.82365573631E+03  0.26315136484E+03 0.  0.
         25    1    4    4    0    0  0.44596899317E+02  0.47936419944E+02  0.51162675884E+03  0.53075063094E+03  0.12509000000E+03 0.  0.
         25    1    4    4    0    0  0.28473700212E+02  0.34443250204E+02  0.26105325809E+03  0.29290510537E+03  0.12509000000E+03 0.  0.
         25    1    3    3    0    0 -0.73070599530E+02 -0.82379670148E+02  0.34550930963E+03  0.38360124310E+03  0.12509000000E+03 0.  0.
<mgrwt>
<rscale>  2 0.45510663E+03</rscale>
<asrwt>0</asrwt>
<pdfrwt beam="1">  1       21 0.17098868E+00 0.45510663E+03</pdfrwt>
<pdfrwt beam="2">  1       21 0.65490929E-02 0.45510663E+03</pdfrwt>
<totfact> 0.31900288E+04</totfact>
</mgrwt>
</event>
<event>
 6    0  0.4709932E-002  0.4533961E+03  0.7546771E-02  0.1026714E+00
         21   -1    0    0  502  501  0.00000000000E+00  0.00000000000E+00  0.26800012832E+04  0.26800012832E+04  0.00000000000E+00 0.  1.
         21   -1    0    0  501  502 -0.00000000000E+00 -0.00000000000E+00 -0.19176110410E+02  0.19176110410E+02  0.00000000000E+00 0.  1.
      99926    2    1    2    0    0  0.00000000000E+00  0.22204460493E-14  0.26608251728E+04  0.26991773936E+04  0.45339607631E+03 0.  0.
         25    1    3    3    0    0  0.63021452754E+02 -0.33115051707E+01  0.13793128044E+04  0.13864104695E+04  0.12509000000E+03 0.  0.
         25    1    3    3    0    0 -0.45877395302E+02 -0.48086764719E+02  0.51009439383E+03  0.52939670481E+03  0.12509000000E+03 0.  0.
         25    1    3    3    0    0 -0.17144057452E+02  0.51398269889E+02  0.77141797453E+03  0.78337021924E+03  0.12509000000E+03 0.  0.
<mgrwt>
<rscale>  2 0.45339608E+03</rscale>
<asrwt>0</asrwt>
<pdfrwt beam="1">  1       21 0.39411758E+00 0.45339608E+03</pdfrwt>
<pdfrwt beam="2">  1       21 0.28200181E-02 0.45339608E+03</pdfrwt>
<totfact> 0.53678680E+03</totfact>
</mgrwt>
</event>
<event>
 7    0  0.4709932E-002  0.4556544E+03  0.7546771E-02  0.1026049E+00
         21   -1    0    0  502  501  0.00000000000E+00  0.00000000000E+00  0.52604895562E+02  0.52604895562E+02  0.00000000000E+00 0.  1.
         21   -1    0    0  501  502 -0.00000000000E+00 -0.00000000000E+00 -0.98669977314E+03  0.98669977314E+03  0.00000000000E+00 0.  1.
      99926    2    1    2    0    0  0.35527136788E-14  0.00000000000E+00 -0.93409487758E+03  0.10393046687E+04  0.45565442395E+03 0.  0.
      99925    2    3    3    0    0  0.18530362384E+02 -0.38672827825E+02 -0.34716821005E+03  0.43766575449E+03  0.26303342875E+03 0.  0.
         25    1    3    3    0    0 -0.18530362384E+02  0.38672827825E+02 -0.58692666752E+03  0.60163891421E+03  0.12509000000E+03 0.  0.
         25    1    4    4    0    0 -0.25182171954E+02 -0.38395805469E+02 -0.19043941308E+03  0.23242860799E+03  0.12509000000E+03 0.  0.
         25    1    4    4    0    0  0.43712534338E+02 -0.27702235582E+00 -0.15672879698E+03  0.20523714650E+03  0.12509000000E+03 0.  0.
<mgrwt>
<rscale>  2 0.45565442E+03</rscale>
<asrwt>0</asrwt>
<pdfrwt beam="1">  1       21 0.77360149E-02 0.45565442E+03</pdfrwt>
<pdfrwt beam="2">  1       21 0.14510289E+00 0.45565442E+03</pdfrwt>
<totfact> 0.37480468E+04</totfact>
</mgrwt>
</event>
<event>
 7    0  0.4709932E-002  0.4414715E+03  0.7546771E-02  0.1030296E+00
         21   -1    0    0  502  501  0.00000000000E+00  0.00000000000E+00  0.27660061236E+03  0.27660061236E+03  0.00000000000E+00 0.  1.
         21   -1    0    0  501  502 -0.00000000000E+00 -0.00000000000E+00 -0.17615387685E+03  0.17615387685E+03  0.00000000000E+00 0.  1.
      99926    2    1    2    0    0  0.00000000000E+00  0.00000000000E+00  0.10044673551E+03  0.45275448922E+03  0.44147149492E+03 0.  0.
      99925    2    3    3    0    0 -0.20192938310E+01  0.65207846363E+02 -0.13600543026E+02  0.27134216710E+03  0.26303128350E+03 0.  0.
         25    1    3    3    0    0  0.20192938310E+01 -0.65207846363E+02  0.11404727854E+03  0.18141232212E+03  0.12509000000E+03 0.  0.
         25    1    4    4    0    0 -0.38528530866E+02  0.45954380748E+02  0.17041927362E+01  0.13873235085E+03  0.12509000000E+03 0.  0.
         25    1    4    4    0    0  0.36509237035E+02  0.19253465615E+02 -0.15304735762E+02  0.13260981624E+03  0.12509000000E+03 0.  0.
<mgrwt>
<rscale>  2 0.44147149E+03</rscale>
<asrwt>0</asrwt>
<pdfrwt beam="1">  1       21 0.40676561E-01 0.44147149E+03</pdfrwt>
<pdfrwt beam="2">  1       21 0.25904982E-01 0.44147149E+03</pdfrwt>
<totfact> 0.76639886E+04</totfact>
</mgrwt>
</event>
<event>
 7    0  0.4709932E-002  0.4473800E+03  0.7546771E-02  0.1028506E+00
         21   -1    0    0  502  501  0.00000000000E+00  0.00000000000E+00  0.34777854618E+04  0.34777854618E+04  0.00000000000E+00 0.  1.
         21   -1    0    0  501  502 -0.00000000000E+00 -0.00000000000E+00 -0.14387666052E+02  0.14387666052E+02  0.00000000000E+00 0.  1.
      99926    2    1    2    0    0  0.17763568394E-14  0.00000000000E+00  0.34633977958E+04  0.34921731279E+04  0.44737999877E+03 0.  0.
      99925    2    3    3    0    0 -0.62254264758E+01  0.99694126316E+02  0.24821456411E+04  0.24979493232E+04  0.26215675192E+03 0.  0.
         25    1    4    4    0    0 -0.21063204818E+02  0.18251724564E+02  0.98330593069E+03  0.99162233006E+03  0.12509000000E+03 0.  0.
         25    1    3    3    0    0  0.62254264758E+01 -0.99694126316E+02  0.98125215462E+03  0.99422380469E+03  0.12509000000E+03 0.  0.
         25    1    4    4    0    0  0.14837778342E+02  0.81442401751E+02  0.14988397104E+04  0.15063269931E+04  0.12509000000E+03 0.  0.
<mgrwt>
<rscale>  2 0.44738000E+03</rscale>
<asrwt>0</asrwt>
<pdfrwt beam="1">  1       21 0.51143845E+00 0.44738000E+03</pdfrwt>
<pdfrwt beam="2">  1       21 0.21158357E-02 0.44738000E+03</pdfrwt>
<totfact> 0.13887488E+03</totfact>
</mgrwt>
</event>
<event>
 7    0  0.4709932E-002  0.4596236E+03  0.7546771E-02  0.1024890E+00
         21   -1    0    0  502  501  0.00000000000E+00  0.00000000000E+00  0.14346551839E+03  0.14346551839E+03  0.00000000000E+00 0.  1.
         21   -1    0    0  501  502 -0.00000000000E+00 -0.00000000000E+00 -0.36812654217E+03  0.36812654217E+03  0.00000000000E+00 0.  1.
      99926    2    1    2    0    0 -0.71054273576E-14  0.00000000000E+00 -0.22466102378E+03  0.51159206057E+03  0.45962360778E+03 0.  0.
      99925    2    3    3    0    0  0.32688517068E+02 -0.10339654365E+03 -0.19127497767E+03  0.34270890403E+03  0.26287619031E+03 0.  0.
         25    1    4    4    0    0 -0.19560175187E+02 -0.60791921093E+02 -0.11441764585E+03  0.18115508247E+03  0.12509000000E+03 0.  0.
         25    1    3    3    0    0 -0.32688517068E+02  0.10339654365E+03 -0.33386046111E+02  0.16888315654E+03  0.12509000000E+03 0.  0.
         25    1    4    4    0    0  0.52248692255E+02 -0.42604622555E+02 -0.76857331825E+02  0.16155382156E+03  0.12509000000E+03 0.  0.
<mgrwt>
<rscale>  2 0.45962361E+03</rscale>
<asrwt>0</asrwt>
<pdfrwt beam="1">  1       21 0.21097871E-01 0.45962361E+03</pdfrwt>
<pdfrwt beam="2">  1       21 0.54136256E-01 0.45962361E+03</pdfrwt>
<totfact> 0.62151541E+04</totfact>
</mgrwt>
</event>
<event>
 7    0  0.4709932E-002  0.4497869E+03  0.7546771E-02  0.1027786E+00
         21   -1    0    0  502  501  0.00000000000E+00  0.00000000000E+00  0.18547724004E+03  0.18547724004E+03  0.00000000000E+00 0. -1.
         21   -1    0    0  501  502 -0.00000000000E+00 -0.00000000000E+00 -0.27268610120E+03  0.27268610120E+03  0.00000000000E+00 0. -1.
      99926    2    1    2    0    0  0.00000000000E+00 -0.17763568394E-14 -0.87208861161E+02  0.45816334123E+03  0.44978690709E+03 0.  0.
      99925    2    3    3    0    0 -0.10497746326E+03  0.73171048342E+01 -0.81970773416E+02  0.29461287966E+03  0.26268561695E+03 0.  0.
         25    1    4    4    0    0 -0.13062942122E+02  0.18703666885E+02 -0.31618096116E+02  0.13102549261E+03  0.12509000000E+03 0.  0.
         25    1    4    4    0    0 -0.91914521141E+02 -0.11386562051E+02 -0.50352677299E+02  0.16358738705E+03  0.12509000000E+03 0.  0.
         25    1    3    3    0    0  0.10497746326E+03 -0.73171048342E+01 -0.52380877458E+01  0.16355046157E+03  0.12509000000E+03 0.  0.
<mgrwt>
<rscale>  2 0.44978691E+03</rscale>
<asrwt>0</asrwt>
<pdfrwt beam="1">  1       21 0.27276065E-01 0.44978691E+03</pdfrwt>
<pdfrwt beam="2">  1       21 0.40100897E-01 0.44978691E+03</pdfrwt>
<totfact> 0.71226950E+04</totfact>
</mgrwt>
</event>
<event>
 6    0  0.4709932E-002  0.4568534E+03  0.7546771E-02  0.1025698E+00
         21   -1    0    0  502  501  0.00000000000E+00  0.00000000000E+00  0.10964783777E+04  0.10964783777E+04  0.00000000000E+00 0.  1.
         21   -1    0    0  501  502 -0.00000000000E+00 -0.00000000000E+00 -0.47587587894E+02  0.47587587894E+02  0.00000000000E+00 0.  1.
      99926    2    1    2    0    0  0.00000000000E+00  0.00000000000E+00  0.10488907898E+04  0.11440659656E+04  0.45685341707E+03 0.  0.
         25    1    3    3    0    0  0.67765414508E+02  0.40132384064E+01  0.21490659198E+03  0.25776075897E+03  0.12509000000E+03 0.  0.
         25    1    3    3    0    0 -0.76952520623E+02  0.48799894953E+02  0.33368865172E+03  0.36782977661E+03  0.12509000000E+03 0.  0.
         25    1    3    3    0    0  0.91871061151E+01 -0.52813133360E+02  0.50029554609E+03  0.51847543000E+03  0.12509000000E+03 0.  0.
<mgrwt>
<rscale>  2 0.45685342E+03</rscale>
<asrwt>0</asrwt>
<pdfrwt beam="1">  1       21 0.16124680E+00 0.45685342E+03</pdfrwt>
<pdfrwt beam="2">  1       21 0.69981754E-02 0.45685342E+03</pdfrwt>
<totfact> 0.33494634E+04</totfact>
</mgrwt>
</event>
<event>
 7    0  0.4709932E-002  0.4529143E+03  0.7546771E-02  0.1026857E+00
         21   -1    0    0  502  501  0.00000000000E+00  0.00000000000E+00  0.10511250385E+03  0.10511250385E+03  0.00000000000E+00 0.  1.
         21   -1    0    0  501  502 -0.00000000000E+00 -0.00000000000E+00 -0.48788516670E+03  0.48788516670E+03  0.00000000000E+00 0.  1.
      99926    2    1    2    0    0 -0.35527136788E-14  0.71054273576E-14 -0.38277266285E+03  0.59299767054E+03  0.45291425882E+03 0.  0.
      99925    2    3    3    0    0  0.31666257861E+02 -0.48475574849E+02 -0.36541321126E+03  0.45406786127E+03  0.26324546422E+03 0.  0.
         25    1    4    4    0    0  0.15831395046E+02 -0.16871776336E+02 -0.24880958086E+03  0.27944410091E+03  0.12509000000E+03 0.  0.
         25    1    3    3    0    0 -0.31666257861E+02  0.48475574849E+02 -0.17359451588E+02  0.13892980927E+03  0.12509000000E+03 0.  0.
         25    1    4    4    0    0  0.15834862815E+02 -0.31603798513E+02 -0.11660363041E+03  0.17462376037E+03  0.12509000000E+03 0.  0.
<mgrwt>
<rscale>  2 0.45291426E+03</rscale>
<asrwt>0</asrwt>
<pdfrwt beam="1">  1       21 0.15457721E-01 0.45291426E+03</pdfrwt>
<pdfrwt beam="2">  1       21 0.71747819E-01 0.45291426E+03</pdfrwt>
<totfact> 0.60095820E+04</totfact>
</mgrwt>
</event>
<event>
 7    0  0.4709932E-002  0.4460262E+03  0.7546771E-02  0.1028914E+00
         21   -1    0    0  502  501  0.00000000000E+00  0.00000000000E+00  0.12373625989E+04  0.12373625989E+04  0.00000000000E+00 0. -1.
         21   -1    0    0  501  502 -0.00000000000E+00 -0.00000000000E+00 -0.40194229179E+02  0.40194229179E+02  0.00000000000E+00 0. -1.
      99926    2    1    2    0    0  0.88817841970E-15 -0.14210854715E-13  0.11971683697E+04  0.12775568281E+04  0.44602616909E+03 0.  0.
      99925    2    3    3    0    0 -0.58464884124E+01 -0.98319428700E+02  0.65976149711E+03  0.71706191613E+03  0.26304308965E+03 0.  0.
         25    1    4    4    0    0  0.86207699227E+01 -0.78702362677E+02  0.42335405242E+03  0.44849140613E+03  0.12509000000E+03 0.  0.
         25    1    3    3    0    0  0.58464884124E+01  0.98319428700E+02  0.53740687261E+03  0.56049491194E+03  0.12509000000E+03 0.  0.
         25    1    4    4    0    0 -0.14467258335E+02 -0.19617066023E+02  0.23640744468E+03  0.26857051000E+03  0.12509000000E+03 0.  0.
<mgrwt>
<rscale>  2 0.44602617E+03</rscale>
<asrwt>0</asrwt>
<pdfrwt beam="1">  1       21 0.18196506E+00 0.44602617E+03</pdfrwt>
<pdfrwt beam="2">  1       21 0.59109169E-02 0.44602617E+03</pdfrwt>
<totfact> 0.31946050E+04</totfact>
</mgrwt>
</event>
<event>
 7    0  0.4709932E-002  0.4513489E+03  0.7546771E-02  0.1027321E+00
         21   -1    0    0  502  501  0.00000000000E+00  0.00000000000E+00  0.13147797967E+04  0.13147797967E+04  0.00000000000E+00 0.  1.
         21   -1    0    0  501  502 -0.00000000000E+00 -0.00000000000E+00 -0.38735728121E+02  0.38735728121E+02  0.00000000000E+00 0.  1.
      99926    2    1    2    0    0  0.00000000000E+00  0.00000000000E+00  0.12760440686E+04  0.13535155248E+04  0.45134887944E+03 0.  0.
      99925    2    3    3    0    0  0.71247524794E+02 -0.80688016199E+02  0.86927387419E+03  0.91454369783E+03  0.26299494509E+03 0.  0.
         25    1    3    3    0    0 -0.71247524794E+02  0.80688016199E+02  0.40677019439E+03  0.43897182699E+03  0.12509000000E+03 0.  0.
         25    1    4    4    0    0  0.34501161895E+02  0.68864422232E+00  0.36570966641E+03  0.38804880184E+03  0.12509000000E+03 0.  0.
         25    1    4    4    0    0  0.36746362899E+02 -0.81376660421E+02  0.50356420778E+03  0.52649489599E+03  0.12509000000E+03 0.  0.
<mgrwt>
<rscale>  2 0.45134888E+03</rscale>
<asrwt>0</asrwt>
<pdfrwt beam="1">  1       21 0.19334994E+00 0.45134888E+03</pdfrwt>
<pdfrwt beam="2">  1       21 0.56964315E-02 0.45134888E+03</pdfrwt>
<totfact> 0.28394848E+04</totfact>
</mgrwt>
</event>
<event>
 7    0  0.4709932E-002  0.4603224E+03  0.7546771E-02  0.1024688E+00
         21   -1    0    0  502  501  0.00000000000E+00  0.00000000000E+00  0.16373754656E+03  0.16373754656E+03  0.00000000000E+00 0.  1.
         21   -1    0    0  501  502 -0.00000000000E+00 -0.00000000000E+00 -0.32353097246E+03  0.32353097246E+03  0.00000000000E+00 0.  1.
      99926    2    1    2    0    0  0.00000000000E+00  0.00000000000E+00 -0.15979342590E+03  0.48726851902E+03  0.46032235517E+03 0.  0.
      99925    2    3    3    0    0 -0.11179335669E+03  0.14666377831E+02 -0.13722732626E+03  0.31735797140E+03  0.26300548607E+03 0.  0.
         25    1    4    4    0    0 -0.25464243528E+02 -0.21930055315E+02 -0.54983436975E+02  0.14071262014E+03  0.12509000000E+03 0.  0.
         25    1    3    3    0    0  0.11179335669E+03 -0.14666377831E+02 -0.22566099639E+02  0.16991054762E+03  0.12509000000E+03 0.  0.
         25    1    4    4    0    0 -0.86329113165E+02  0.36596433147E+02 -0.82243889287E+02  0.17664535127E+03  0.12509000000E+03 0.  0.
<mgrwt>
<rscale>  2 0.46032236E+03</rscale>
<asrwt>0</asrwt>
<pdfrwt beam="1">  1       21 0.24079051E-01 0.46032236E+03</pdfrwt>
<pdfrwt beam="2">  1       21 0.47578084E-01 0.46032236E+03</pdfrwt>
<totfact> 0.63451200E+04</totfact>
</mgrwt>
</event>
<event>
 7    0  0.4709932E-002  0.4561069E+03  0.7546771E-02  0.1025916E+00
         21   -1    0    0  502  501  0.00000000000E+00  0.00000000000E+00  0.86524052696E+03  0.86524052696E+03  0.00000000000E+00 0.  1.
         21   -1    0    0  501  502 -0.00000000000E+00 -0.00000000000E+00 -0.60108587061E+02  0.60108587061E+02  0.00000000000E+00 0.  1.
      99926    2    1    2    0    0 -0.35527136788E-14  0.35527136788E-14  0.80513193990E+03  0.92534911402E+03  0.45610694160E+03 0.  0.
      99925    2    3    3    0    0  0.17825248875E+02  0.26884488149E+02  0.28398226605E+03  0.38842732656E+03  0.26303867660E+03 0.  0.
         25    1    4    4    0    0  0.41330818878E+02  0.30259235805E+02  0.17282965094E+03  0.21941160927E+03  0.12509000000E+03 0.  0.
         25    1    4    4    0    0 -0.23505570003E+02 -0.33747476553E+01  0.11115261511E+03  0.16901571728E+03  0.12509000000E+03 0.  0.
         25    1    3    3    0    0 -0.17825248875E+02 -0.26884488149E+02  0.52114967385E+03  0.53692178747E+03  0.12509000000E+03 0.  0.
<mgrwt>
<rscale>  2 0.45610694E+03</rscale>
<asrwt>0</asrwt>
<pdfrwt beam="1">  1       21 0.12724125E+00 0.45610694E+03</pdfrwt>
<pdfrwt beam="2">  1       21 0.88394986E-02 0.45610694E+03</pdfrwt>
<totfact> 0.41792470E+04</totfact>
</mgrwt>
</event>
<event>
 7    0  0.4709932E-002  0.4552354E+03  0.7546771E-02  0.1026172E+00
         21   -1    0    0  502  501  0.00000000000E+00  0.00000000000E+00  0.19844010789E+03  0.19844010789E+03  0.00000000000E+00 0. -1.
         21   -1    0    0  501  502 -0.00000000000E+00 -0.00000000000E+00 -0.26108545263E+03  0.26108545263E+03  0.00000000000E+00 0. -1.
      99926    2    1    2    0    0  0.00000000000E+00  0.00000000000E+00 -0.62645344738E+02  0.45952556052E+03  0.45523543530E+03 0.  0.
      99925    2    3    3    0    0 -0.74187680660E+02 -0.19687031961E+02  0.44817414842E+02  0.27762684148E+03  0.26301458372E+03 0.  0.
         25    1    4    4    0    0 -0.55307115473E+02  0.20323832202E+02  0.43441029315E+02  0.14493642160E+03  0.12509000000E+03 0.  0.
         25    1    4    4    0    0 -0.18880565187E+02 -0.40010864162E+02  0.13763855276E+01  0.13269041989E+03  0.12509000000E+03 0.  0.
         25    1    3    3    0    0  0.74187680660E+02  0.19687031961E+02 -0.10746275958E+03  0.18189871903E+03  0.12509000000E+03 0.  0.
<mgrwt>
<rscale>  2 0.45523544E+03</rscale>
<asrwt>0</asrwt>
<pdfrwt beam="1">  1       21 0.29182369E-01 0.45523544E+03</pdfrwt>
<pdfrwt beam="2">  1       21 0.38394919E-01 0.45523544E+03</pdfrwt>
<totfact> 0.68087235E+04</totfact>
</mgrwt>
</event>
<event>
 7    0  0.4709932E-002  0.4533053E+03  0.7546771E-02  0.1026741E+00
         21   -1    0    0  502  501  0.00000000000E+00  0.00000000000E+00  0.12539654806E+04  0.12539654806E+04  0.00000000000E+00 0. -1.
         21   -1    0    0  501  502 -0.00000000000E+00 -0.00000000000E+00 -0.40967178945E+02  0.40967178945E+02  0.00000000000E+00 0. -1.
      99926    2    1    2    0    0 -0.14210854715E-13  0.71054273576E-14  0.12129983017E+04  0.12949326595E+04  0.45330531977E+03 0.  0.
      99925    2    3    3    0    0  0.98967324813E+02  0.34221242236E+02  0.65502951728E+03  0.71360461339E+03  0.26306320714E+03 0.  0.
         25    1    3    3    0    0 -0.98967324813E+02 -0.34221242236E+02  0.55796878437E+03  0.58132804615E+03  0.12509000000E+03 0.  0.
         25    1    4    4    0    0  0.81478661469E+02 -0.54530140882E+01  0.31217655360E+03  0.34607833846E+03  0.12509000000E+03 0.  0.
         25    1    4    4    0    0  0.17488663343E+02  0.39674256325E+02  0.34285296368E+03  0.36752627493E+03  0.12509000000E+03 0.  0.
<mgrwt>
<rscale>  2 0.45330532E+03</rscale>
<asrwt>0</asrwt>
<pdfrwt beam="1">  1       21 0.18440666E+00 0.45330532E+03</pdfrwt>
<pdfrwt beam="2">  1       21 0.60245860E-02 0.45330532E+03</pdfrwt>
<totfact> 0.29651114E+04</totfact>
</mgrwt>
</event>
<event>
 7    0  0.4709932E-002  0.4458930E+03  0.7546771E-02  0.1028954E+00
         21   -1    0    0  502  501  0.00000000000E+00  0.00000000000E+00  0.11189530875E+03  0.11189530875E+03  0.00000000000E+00 0.  1.
         21   -1    0    0  501  502 -0.00000000000E+00 -0.00000000000E+00 -0.44421118765E+03  0.44421118765E+03  0.00000000000E+00 0.  1.
      99926    2    1    2    0    0  0.71054273576E-14  0.00000000000E+00 -0.33231587890E+03  0.55610649640E+03  0.44589302749E+03 0.  0.
      99925    2    3    3    0    0 -0.37539755697E+02 -0.71498216560E+02 -0.12847014640E+03  0.30367468583E+03  0.26304468834E+03 0.  0.
         25    1    3    3    0    0  0.37539755697E+02  0.71498216560E+02 -0.20384573250E+03  0.25243181057E+03  0.12509000000E+03 0.  0.
         25    1    4    4    0    0 -0.42664044420E+02 -0.70641640997E+02 -0.74139791029E+02  0.16719652760E+03  0.12509000000E+03 0.  0.
         25    1    4    4    0    0  0.51242887234E+01 -0.85657556329E+00 -0.54330355373E+02  0.13647815822E+03  0.12509000000E+03 0.  0.
<mgrwt>
<rscale>  2 0.44589303E+03</rscale>
<asrwt>0</asrwt>
<pdfrwt beam="1">  1       21 0.16455193E-01 0.44589303E+03</pdfrwt>
<pdfrwt beam="2">  1       21 0.65325174E-01 0.44589303E+03</pdfrwt>
<totfact> 0.66099513E+04</totfact>
</mgrwt>
</event>
<event>
 7    0  0.4709932E-002  0.4564886E+03  0.7546771E-02  0.1025805E+00
         21   -1    0    0  502  501  0.00000000000E+00  0.00000000000E+00  0.40847064494E+02  0.40847064494E+02  0.00000000000E+00 0.  1.
         21   -1    0    0  501  502 -0.00000000000E+00 -0.00000000000E+00 -0.12753784846E+04  0.12753784846E+04  0.00000000000E+00 0.  1.
      99926    2    1    2    0    0  0.17763568394E-14  0.00000000000E+00 -0.12345314201E+04  0.13162255491E+04  0.45648862949E+03 0.  0.
      99925    2    3    3    0    0 -0.86602166696E+01  0.94788611689E+01 -0.11040383140E+04  0.11350052219E+04  0.26300457542E+03 0.  0.
         25    1    4    4    0    0  0.35824000482E+02 -0.92963206496E+00 -0.55330999196E+03  0.56840450256E+03  0.12509000000E+03 0.  0.
         25    1    4    4    0    0 -0.44484217151E+02  0.10408493234E+02 -0.55072832207E+03  0.56660071933E+03  0.12509000000E+03 0.  0.
         25    1    3    3    0    0  0.86602166696E+01 -0.94788611689E+01 -0.13049310608E+03  0.18122032722E+03  0.12509000000E+03 0.  0.
<mgrwt>
<rscale>  2 0.45648863E+03</rscale>
<asrwt>0</asrwt>
<pdfrwt beam="1">  1       21 0.60069213E-02 0.45648863E+03</pdfrwt>
<pdfrwt beam="2">  1       21 0.18755566E+00 0.45648863E+03</pdfrwt>
<totfact> 0.28317864E+04</totfact>
</mgrwt>
</event>
<event>
 7    0  0.4709932E-002  0.4578226E+03  0.7546771E-02  0.1025415E+00
         21   -1    0    0  502  501  0.00000000000E+00  0.00000000000E+00  0.61468577258E+02  0.61468577258E+02  0.00000000000E+00 0. -1.
         21   -1    0    0  501  502 -0.00000000000E+00 -0.00000000000E+00 -0.85247442725E+03  0.85247442725E+03  0.00000000000E+00 0. -1.
      99926    2    1    2    0    0  0.00000000000E+00  0.00000000000E+00 -0.79100584999E+03  0.91394300451E+03  0.45782263025E+03 0.  0.
      99925    2    3    3    0    0  0.90946785915E+02  0.71839686922E+02 -0.49806916436E+03  0.57498626925E+03  0.26287650876E+03 0.  0.
         25    1    3    3    0    0 -0.90946785915E+02 -0.71839686922E+02 -0.29293668564E+03  0.33895673526E+03  0.12509000000E+03 0.  0.
         25    1    4    4    0    0  0.65408513401E+02  0.28880863168E+02 -0.18752797758E+03  0.23648811462E+03  0.12509000000E+03 0.  0.
         25    1    4    4    0    0  0.25538272514E+02  0.42958823754E+02 -0.31054118678E+03  0.33849815463E+03  0.12509000000E+03 0.  0.
<mgrwt>
<rscale>  2 0.45782263E+03</rscale>
<asrwt>0</asrwt>
<pdfrwt beam="1">  1       21 0.90394959E-02 0.45782263E+03</pdfrwt>
<pdfrwt beam="2">  1       21 0.12536390E+00 0.45782263E+03</pdfrwt>
<totfact> 0.41707207E+04</totfact>
</mgrwt>
</event>
<event>
 7    0  0.4709932E-002  0.4490887E+03  0.7546771E-02  0.1027994E+00
         21   -1    0    0  502  501  0.00000000000E+00  0.00000000000E+00  0.78735211841E+02  0.78735211841E+02  0.00000000000E+00 0. -1.
         21   -1    0    0  501  502 -0.00000000000E+00 -0.00000000000E+00 -0.64037645069E+03  0.64037645069E+03  0.00000000000E+00 0. -1.
      99926    2    1    2    0    0  0.00000000000E+00  0.00000000000E+00 -0.56164123885E+03  0.71911166253E+03  0.44908874626E+03 0.  0.
      99925    2    3    3    0    0 -0.78159697684E+02 -0.68965013110E+01 -0.23774923302E+03  0.36314812562E+03  0.26305011550E+03 0.  0.
         25    1    3    3    0    0  0.78159697684E+02  0.68965013110E+01 -0.32389200583E+03  0.35596353692E+03  0.12509000000E+03 0.  0.
         25    1    4    4    0    0 -0.74921095786E+02  0.70747177962E+00 -0.15573302494E+03  0.21333999687E+03  0.12509000000E+03 0.  0.
         25    1    4    4    0    0 -0.32386018986E+01 -0.76039730906E+01 -0.82016208080E+02  0.14980812874E+03  0.12509000000E+03 0.  0.
<mgrwt>
<rscale>  2 0.44908875E+03</rscale>
<asrwt>0</asrwt>
<pdfrwt beam="1">  1       21 0.11578708E-01 0.44908875E+03</pdfrwt>
<pdfrwt beam="2">  1       21 0.94173007E-01 0.44908875E+03</pdfrwt>
<totfact> 0.54361453E+04</totfact>
</mgrwt>
</event>
<event>
 7    0  0.4709932E-002  0.4526707E+03  0.7546771E-02  0.1026929E+00
         21   -1    0    0  502  501  0.00000000000E+00  0.00000000000E+00  0.60586547653E+03  0.60586547653E+03  0.00000000000E+00 0. -1.
         21   -1    0    0  501  502 -0.00000000000E+00 -0.00000000000E+00 -0.84552914064E+02  0.84552914064E+02  0.00000000000E+00 0. -1.
      99926    2    1    2    0    0  0.00000000000E+00 -0.22204460493E-14  0.52131256246E+03  0.69041839059E+03  0.45267070403E+03 0.  0.
      99925    2    3    3    0    0  0.99502063313E+02  0.17360972832E+01  0.40338148516E+03  0.49177569193E+03  0.26310270612E+03 0.  0.
         25    1    4    4    0    0  0.43250618293E+02 -0.35799151492E+02  0.16892531748E+03  0.21756715335E+03  0.12509000000E+03 0.  0.
         25    1    4    4    0    0  0.56251445020E+02  0.37535248775E+02  0.23445616769E+03  0.27420853859E+03  0.12509000000E+03 0.  0.
         25    1    3    3    0    0 -0.99502063313E+02 -0.17360972832E+01  0.11793107730E+03  0.19864269866E+03  0.12509000000E+03 0.  0.
<mgrwt>
<rscale>  2 0.45267070E+03</rscale>
<asrwt>0</asrwt>
<pdfrwt beam="1">  1       21 0.89097863E-01 0.45267070E+03</pdfrwt>
<pdfrwt beam="2">  1       21 0.12434252E-01 0.45267070E+03</pdfrwt>
<totfact> 0.54417308E+04</totfact>
</mgrwt>
</event>
<event>
 7    0  0.4709932E-002  0.4562725E+03  0.7546771E-02  0.1025868E+00
         21   -1    0    0  502  501  0.00000000000E+00  0.00000000000E+00  0.46295592708E+03  0.46295592708E+03  0.00000000000E+00 0.  1.
         21   -1    0    0  501  502 -0.00000000000E+00 -0.00000000000E+00 -0.11242139570E+03  0.11242139570E+03  0.00000000000E+00 0.  1.
      99926    2    1    2    0    0  0.00000000000E+00  0.44408920985E-15  0.35053453139E+03  0.57537732278E+03  0.45627251273E+03 0.  0.
      99925    2    3    3    0    0  0.51068379716E+02 -0.13306046007E+01  0.91638070355E+02  0.28334199007E+03  0.26320219886E+03 0.  0.
         25    1    4    4    0    0  0.46914811483E+02 -0.27529618990E+02  0.23385837834E+02  0.13839539360E+03  0.12509000000E+03 0.  0.
         25    1    4    4    0    0  0.41535682331E+01  0.26199014389E+02  0.68252232521E+02  0.14494659647E+03  0.12509000000E+03 0.  0.
         25    1    3    3    0    0 -0.51068379716E+02  0.13306046007E+01  0.25889646103E+03  0.29203533271E+03  0.12509000000E+03 0.  0.
<mgrwt>
<rscale>  2 0.45627251E+03</rscale>
<asrwt>0</asrwt>
<pdfrwt beam="1">  1       21 0.68081753E-01 0.45627251E+03</pdfrwt>
<pdfrwt beam="2">  1       21 0.16532558E-01 0.45627251E+03</pdfrwt>
<totfact> 0.59617938E+04</totfact>
</mgrwt>
</event>
<event>
 7    0  0.4709932E-002  0.4559917E+03  0.7546771E-02  0.1025950E+00
         21   -1    0    0  502  501  0.00000000000E+00  0.00000000000E+00  0.53029738852E+02  0.53029738852E+02  0.00000000000E+00 0. -1.
         21   -1    0    0  501  502 -0.00000000000E+00 -0.00000000000E+00 -0.98024465609E+03  0.98024465609E+03  0.00000000000E+00 0. -1.
      99926    2    1    2    0    0 -0.14210854715E-13  0.71054273576E-14 -0.92721491724E+03  0.10332743949E+04  0.45599174608E+03 0.  0.
      99925    2    3    3    0    0  0.10989048396E+03 -0.19266856318E+02 -0.63563301626E+03  0.69694919028E+03  0.26317620001E+03 0.  0.
         25    1    4    4    0    0  0.79163628264E+02  0.22315563353E+02 -0.35952024356E+03  0.38944470473E+03  0.12509000000E+03 0.  0.
         25    1    4    4    0    0  0.30726855692E+02 -0.41582419671E+02 -0.27611277270E+03  0.30750448555E+03  0.12509000000E+03 0.  0.
         25    1    3    3    0    0 -0.10989048396E+03  0.19266856318E+02 -0.29158190098E+03  0.33632520467E+03  0.12509000000E+03 0.  0.
<mgrwt>
<rscale>  2 0.45599175E+03</rscale>
<asrwt>0</asrwt>
<pdfrwt beam="1">  1       21 0.77984910E-02 0.45599175E+03</pdfrwt>
<pdfrwt beam="2">  1       21 0.14415363E+00 0.45599175E+03</pdfrwt>
<totfact> 0.37605166E+04</totfact>
</mgrwt>
</event>
<event>
 7    0  0.4709932E-002  0.4519702E+03  0.7546771E-02  0.1027136E+00
         21   -1    0    0  502  501  0.00000000000E+00  0.00000000000E+00  0.61000070851E+03  0.61000070851E+03  0.00000000000E+00 0. -1.
         21   -1    0    0  501  502 -0.00000000000E+00 -0.00000000000E+00 -0.83720010668E+02  0.83720010668E+02  0.00000000000E+00 0. -1.
      99926    2    1    2    0    0  0.14210854715E-13  0.00000000000E+00  0.52628069784E+03  0.69372071917E+03  0.45197020178E+03 0.  0.
      99925    2    3    3    0    0  0.71956961080E+02 -0.77653687676E+02  0.37975202384E+03  0.47388882917E+03  0.26296601177E+03 0.  0.
         25    1    4    4    0    0  0.29067769399E+02 -0.73202656919E+02  0.23636446128E+03  0.27878169031E+03  0.12509000000E+03 0.  0.
         25    1    3    3    0    0 -0.71956961080E+02  0.77653687676E+02  0.14652867400E+03  0.21983189000E+03  0.12509000000E+03 0.  0.
         25    1    4    4    0    0  0.42889191681E+02 -0.44510307572E+01  0.14338756256E+03  0.19510713886E+03  0.12509000000E+03 0.  0.
<mgrwt>
<rscale>  2 0.45197020E+03</rscale>
<asrwt>0</asrwt>
<pdfrwt beam="1">  1       21 0.89705984E-01 0.45197020E+03</pdfrwt>
<pdfrwt beam="2">  1       21 0.12311767E-01 0.45197020E+03</pdfrwt>
<totfact> 0.54534184E+04</totfact>
</mgrwt>
</event>
<event>
 7    0  0.4709932E-002  0.4565185E+03  0.7546771E-02  0.1025796E+00
         21   -1    0    0  502  501  0.00000000000E+00  0.00000000000E+00  0.20195592138E+03  0.20195592138E+03  0.00000000000E+00 0.  1.
         21   -1    0    0  501  502 -0.00000000000E+00 -0.00000000000E+00 -0.25798836809E+03  0.25798836809E+03  0.00000000000E+00 0.  1.
      99926    2    1    2    0    0  0.00000000000E+00  0.00000000000E+00 -0.56032446715E+02  0.45994428947E+03  0.45651847097E+03 0.  0.
      99925    2    3    3    0    0  0.82602326366E+02 -0.22059537899E+02  0.41624824756E+02  0.27968276195E+03  0.26302101392E+03 0.  0.
         25    1    4    4    0    0  0.59687548262E+02 -0.26021402637E+02 -0.12166407249E+02  0.14154591615E+03  0.12509000000E+03 0.  0.
         25    1    4    4    0    0  0.22914778104E+02  0.39618647375E+01  0.53791232005E+02  0.13813684580E+03  0.12509000000E+03 0.  0.
         25    1    3    3    0    0 -0.82602326366E+02  0.22059537899E+02 -0.97657271472E+02  0.18026152752E+03  0.12509000000E+03 0.  0.
<mgrwt>
<rscale>  2 0.45651847E+03</rscale>
<asrwt>0</asrwt>
<pdfrwt beam="1">  1       21 0.29699400E-01 0.45651847E+03</pdfrwt>
<pdfrwt beam="2">  1       21 0.37939466E-01 0.45651847E+03</pdfrwt>
<totfact> 0.67365114E+04</totfact>
</mgrwt>
</event>
<event>
 7    0  0.4709932E-002  0.4497570E+03  0.7546771E-02  0.1027795E+00
         21   -1    0    0  502  501  0.00000000000E+00  0.00000000000E+00  0.28980175547E+03  0.28980175547E+03  0.00000000000E+00 0. -1.
         21   -1    0    0  501  502 -0.00000000000E+00 -0.00000000000E+00 -0.17449973927E+03  0.17449973927E+03  0.00000000000E+00 0. -1.
      99926    2    1    2    0    0  0.00000000000E+00  0.17763568394E-14  0.11530201619E+03  0.46430149474E+03  0.44975696001E+03 0.  0.
      99925    2    3    3    0    0 -0.10311462448E+03  0.37687942257E+01  0.10668414454E+03  0.30191736558E+03  0.26291778059E+03 0.  0.
         25    1    4    4    0    0 -0.63444180417E+02  0.38126458277E+02  0.70372181816E+02  0.16148852257E+03  0.12509000000E+03 0.  0.
         25    1    3    3    0    0  0.10311462448E+03 -0.37687942257E+01  0.86178716476E+01  0.16238412916E+03  0.12509000000E+03 0.  0.
         25    1    4    4    0    0 -0.39670444062E+02 -0.34357664052E+02  0.36311962728E+02  0.14042884301E+03  0.12509000000E+03 0.  0.
<mgrwt>
<rscale>  2 0.44975696E+03</rscale>
<asrwt>0</asrwt>
<pdfrwt beam="1">  1       21 0.42617906E-01 0.44975696E+03</pdfrwt>
<pdfrwt beam="2">  1       21 0.25661726E-01 0.44975696E+03</pdfrwt>
<totfact> 0.70759401E+04</totfact>
</mgrwt>
</event>
<event>
 7    0  0.4709932E-002  0.4519229E+03  0.7546771E-02  0.1027150E+00
         21   -1    0    0  502  501  0.00000000000E+00  0.00000000000E+00  0.68491094807E+02  0.68491094807E+02  0.00000000000E+00 0. -1.
         21   -1    0    0  501  502 -0.00000000000E+00 -0.00000000000E+00 -0.74547746795E+03  0.74547746795E+03  0.00000000000E+00 0. -1.
      99926    2    1    2    0    0 -0.14210854715E-13  0.17763568394E-14 -0.67698637314E+03  0.81396856275E+03  0.45192286038E+03 0.  0.
      99925    2    3    3    0    0  0.81199366924E+02 -0.15574800494E+02 -0.29553010370E+03  0.40409991893E+03  0.26291213491E+03 0.  0.
         25    1    4    4    0    0  0.56544183706E+02 -0.85737195672E+01 -0.97972567308E+02  0.16886943306E+03  0.12509000000E+03 0.  0.
         25    1    4    4    0    0  0.24655183218E+02 -0.70010809264E+01 -0.19755753639E+03  0.23523048586E+03  0.12509000000E+03 0.  0.
         25    1    3    3    0    0 -0.81199366924E+02  0.15574800494E+02 -0.38145626943E+03  0.40986864382E+03  0.12509000000E+03 0.  0.
<mgrwt>
<rscale>  2 0.45192286E+03</rscale>
<asrwt>0</asrwt>
<pdfrwt beam="1">  1       21 0.10072219E-01 0.45192286E+03</pdfrwt>
<pdfrwt beam="2">  1       21 0.10962904E+00 0.45192286E+03</pdfrwt>
<totfact> 0.48251160E+04</totfact>
</mgrwt>
</event>
<event>
 7    0  0.4709932E-002  0.4543839E+03  0.7546771E-02  0.1026423E+00
         21   -1    0    0  502  501  0.00000000000E+00  0.00000000000E+00  0.39867282591E+02  0.39867282591E+02  0.00000000000E+00 0.  1.
         21   -1    0    0  501  502 -0.00000000000E+00 -0.00000000000E+00 -0.12947003778E+04  0.12947003778E+04  0.00000000000E+00 0.  1.
      99926    2    1    2    0    0  0.00000000000E+00 -0.17763568394E-14 -0.12548330952E+04  0.13345676604E+04  0.45438391623E+03 0.  0.
      99925    2    3    3    0    0 -0.58186961696E+02  0.13385638107E+02 -0.10703703044E+04  0.11038320387E+04  0.26303551720E+03 0.  0.
         25    1    4    4    0    0 -0.51622103129E+02  0.19078725339E+02 -0.42630985092E+03  0.44767894342E+03  0.12509000000E+03 0.  0.
         25    1    3    3    0    0  0.58186961696E+02 -0.13385638107E+02 -0.18446279077E+03  0.23073562165E+03  0.12509000000E+03 0.  0.
         25    1    4    4    0    0 -0.65648585669E+01 -0.56930872327E+01 -0.64406045351E+03  0.65615309532E+03  0.12509000000E+03 0.  0.
<mgrwt>
<rscale>  2 0.45438392E+03</rscale>
<asrwt>0</asrwt>
<pdfrwt beam="1">  1       21 0.58628350E-02 0.45438392E+03</pdfrwt>
<pdfrwt beam="2">  1       21 0.19039714E+00 0.45438392E+03</pdfrwt>
<totfact> 0.28262260E+04</totfact>
</mgrwt>
</event>
<event>
 7    0  0.4709932E-002  0.4640803E+03  0.7546771E-02  0.1023604E+00
         21   -1    0    0  502  501  0.00000000000E+00  0.00000000000E+00  0.43613759496E+02  0.43613759496E+02  0.00000000000E+00 0. -1.
         21   -1    0    0  501  502 -0.00000000000E+00 -0.00000000000E+00 -0.12345331756E+04  0.12345331756E+04  0.00000000000E+00 0. -1.
      99926    2    1    2    0    0  0.00000000000E+00  0.00000000000E+00 -0.11909194162E+04  0.12781469351E+04  0.46408030776E+03 0.  0.
      99925    2    3    3    0    0 -0.91179835323E+02  0.37956497518E+02 -0.93832945970E+03  0.97947713038E+03  0.26298063795E+03 0.  0.
         25    1    4    4    0    0 -0.60897932812E+02  0.18811817218E+02 -0.61764442745E+03  0.63339923394E+03  0.12509000000E+03 0.  0.
         25    1    3    3    0    0  0.91179835323E+02 -0.37956497518E+02 -0.25258995645E+03  0.29866980476E+03  0.12509000000E+03 0.  0.
         25    1    4    4    0    0 -0.30281902511E+02  0.19144680300E+02 -0.32068503225E+03  0.34607789645E+03  0.12509000000E+03 0.  0.
<mgrwt>
<rscale>  2 0.46408031E+03</rscale>
<asrwt>0</asrwt>
<pdfrwt beam="1">  1       21 0.64137878E-02 0.46408031E+03</pdfrwt>
<pdfrwt beam="2">  1       21 0.18154901E+00 0.46408031E+03</pdfrwt>
<totfact> 0.27743082E+04</totfact>
</mgrwt>
</event>
<event>
 7    0  0.4709932E-002  0.4568496E+03  0.7546771E-02  0.1025699E+00
         21   -1    0    0  502  501  0.00000000000E+00  0.00000000000E+00  0.27841536407E+03  0.27841536407E+03  0.00000000000E+00 0. -1.
         21   -1    0    0  501  502 -0.00000000000E+00 -0.00000000000E+00 -0.18741027656E+03  0.18741027656E+03  0.00000000000E+00 0. -1.
      99926    2    1    2    0    0  0.00000000000E+00 -0.71054273576E-14  0.91005087503E+02  0.46582564063E+03  0.45684964870E+03 0.  0.
      99925    2    3    3    0    0 -0.69486497806E+02  0.43050233221E+02  0.13952644788E+03  0.30871572219E+03  0.26297541998E+03 0.  0.
         25    1    4    4    0    0 -0.61159346394E+02  0.41437665416E+02  0.46295396103E+02  0.15247398980E+03  0.12509000000E+03 0.  0.
         25    1    4    4    0    0 -0.83271514126E+01  0.16125678047E+01  0.93231051772E+02  0.15624173239E+03  0.12509000000E+03 0.  0.
         25    1    3    3    0    0  0.69486497806E+02 -0.43050233221E+02 -0.48521360372E+02  0.15710991843E+03  0.12509000000E+03 0.  0.
<mgrwt>
<rscale>  2 0.45684965E+03</rscale>
<asrwt>0</asrwt>
<pdfrwt beam="1">  1       21 0.40943436E-01 0.45684965E+03</pdfrwt>
<pdfrwt beam="2">  1       21 0.27560335E-01 0.45684965E+03</pdfrwt>
<totfact> 0.66761957E+04</totfact>
</mgrwt>
</event>
<event>
 7    0  0.4709932E-002  0.4513570E+03  0.7546771E-02  0.1027318E+00
         21   -1    0    0  502  501  0.00000000000E+00  0.00000000000E+00  0.10524261954E+03  0.10524261954E+03  0.00000000000E+00 0. -1.
         21   -1    0    0  501  502 -0.00000000000E+00 -0.00000000000E+00 -0.48393698494E+03  0.48393698494E+03  0.00000000000E+00 0. -1.
      99926    2    1    2    0    0  0.00000000000E+00  0.00000000000E+00 -0.37869436540E+03  0.58917960448E+03  0.45135704708E+03 0.  0.
      99925    2    3    3    0    0 -0.10021530312E+03  0.40861459611E+02 -0.26333281601E+03  0.38751512809E+03  0.26288978042E+03 0.  0.
         25    1    3    3    0    0  0.10021530312E+03 -0.40861459611E+02 -0.11536154939E+03  0.20166447639E+03  0.12509000000E+03 0.  0.
         25    1    4    4    0    0 -0.62370406272E+02  0.50433993858E+02 -0.10479979436E+03  0.18183553094E+03  0.12509000000E+03 0.  0.
         25    1    4    4    0    0 -0.37844896844E+02 -0.95725342468E+01 -0.15853302165E+03  0.20567959715E+03  0.12509000000E+03 0.  0.
<mgrwt>
<rscale>  2 0.45135705E+03</rscale>
<asrwt>0</asrwt>
<pdfrwt beam="1">  1       21 0.15476856E-01 0.45135705E+03</pdfrwt>
<pdfrwt beam="2">  1       21 0.71167204E-01 0.45135705E+03</pdfrwt>
<totfact> 0.61089279E+04</totfact>
</mgrwt>
</event>
<event>
 7    0  0.4709932E-002  0.4343649E+03  0.7546771E-02  0.1032490E+00
         21   -1    0    0  502  501  0.00000000000E+00  0.00000000000E+00  0.76486802904E+03  0.76486802904E+03  0.00000000000E+00 0. -1.
         21   -1    0    0  501  502 -0.00000000000E+00 -0.00000000000E+00 -0.61668440326E+02  0.61668440326E+02  0.00000000000E+00 0. -1.
      99926    2    1    2    0    0  0.00000000000E+00 -0.88817841970E-15  0.70319958872E+03  0.82653646937E+03  0.43436490837E+03 0.  0.
      99925    2    3    3    0    0 -0.92503948526E+02  0.50398411370E+01  0.44342422347E+03  0.52369471369E+03  0.26277125166E+03 0.  0.
         25    1    3    3    0    0  0.92503948526E+02 -0.50398411370E+01  0.25977536525E+03  0.30284175568E+03  0.12509000000E+03 0.  0.
         25    1    4    4    0    0 -0.29984175386E+02  0.16637003900E+02  0.14903349980E+03  0.19757108299E+03  0.12509000000E+03 0.  0.
         25    1    4    4    0    0 -0.62519773140E+02 -0.11597162763E+02  0.29439072367E+03  0.32612363070E+03  0.12509000000E+03 0.  0.
<mgrwt>
<rscale>  2 0.43436491E+03</rscale>
<asrwt>0</asrwt>
<pdfrwt beam="1">  1       21 0.11248059E+00 0.43436491E+03</pdfrwt>
<pdfrwt beam="2">  1       21 0.90688887E-02 0.43436491E+03</pdfrwt>
<totfact> 0.54866222E+04</totfact>
</mgrwt>
</event>
<event>
 7    0  0.4709932E-002  0.4561526E+03  0.7546771E-02  0.1025903E+00
         21   -1    0    0  502  501  0.00000000000E+00  0.00000000000E+00  0.72347021047E+02  0.72347021047E+02  0.00000000000E+00 0. -1.
         21   -1    0    0  501  502 -0.00000000000E+00 -0.00000000000E+00 -0.71901787847E+03  0.71901787847E+03  0.00000000000E+00 0. -1.
      99926    2    1    2    0    0  0.00000000000E+00  0.00000000000E+00 -0.64667085742E+03  0.79136489951E+03  0.45615261300E+03 0.  0.
      99925    2    3    3    0    0 -0.71047820522E+02  0.75856732307E+02 -0.32435553223E+03  0.43034313620E+03  0.26303358521E+03 0.  0.
         25    1    3    3    0    0  0.71047820522E+02 -0.75856732307E+02 -0.32231532519E+03  0.36102176331E+03  0.12509000000E+03 0.  0.
         25    1    4    4    0    0 -0.41405381374E+02  0.63896725010E+01 -0.11482582853E+03  0.17489343189E+03  0.12509000000E+03 0.  0.
         25    1    4    4    0    0 -0.29642439149E+02  0.69467059806E+02 -0.20952970370E+03  0.25544970431E+03  0.12509000000E+03 0.  0.
<mgrwt>
<rscale>  2 0.45615261E+03</rscale>
<asrwt>0</asrwt>
<pdfrwt beam="1">  1       21 0.10639268E-01 0.45615261E+03</pdfrwt>
<pdfrwt beam="2">  1       21 0.10573792E+00 0.45615261E+03</pdfrwt>
<totfact> 0.47751895E+04</totfact>
</mgrwt>
</event>
<event>
 7    0  0.4709932E-002  0.4511312E+03  0.7546771E-02  0.1027385E+00
         21   -1    0    0  502  501  0.00000000000E+00  0.00000000000E+00  0.46581102125E+03  0.46581102125E+03  0.00000000000E+00 0.  1.
         21   -1    0    0  501  502 -0.00000000000E+00 -0.00000000000E+00 -0.10922850837E+03  0.10922850837E+03  0.00000000000E+00 0.  1.
      99926    2    1    2    0    0 -0.17763568394E-14  0.14210854715E-13  0.35658251288E+03  0.57503952962E+03  0.45113121388E+03 0.  0.
      99925    2    3    3    0    0  0.14004095893E+02 -0.10775840302E+03  0.20746490398E+03  0.35212349721E+03  0.26294730038E+03 0.  0.
         25    1    4    4    0    0  0.28935868915E+02 -0.53807236108E+02  0.14661215805E+03  0.20217600291E+03  0.12509000000E+03 0.  0.
         25    1    3    3    0    0 -0.14004095893E+02  0.10775840302E+03  0.14911760890E+03  0.22291603241E+03  0.12509000000E+03 0.  0.
         25    1    4    4    0    0 -0.14931773023E+02 -0.53951166913E+02  0.60852745933E+02  0.14994749429E+03  0.12509000000E+03 0.  0.
<mgrwt>
<rscale>  2 0.45113121E+03</rscale>
<asrwt>0</asrwt>
<pdfrwt beam="1">  1       21 0.68501620E-01 0.45113121E+03</pdfrwt>
<pdfrwt beam="2">  1       21 0.16063016E-01 0.45113121E+03</pdfrwt>
<totfact> 0.62120080E+04</totfact>
</mgrwt>
</event>
<event>
 7    0  0.4709932E-002  0.4533212E+03  0.7546771E-02  0.1026736E+00
         21   -1    0    0  502  501  0.00000000000E+00  0.00000000000E+00  0.11895578289E+03  0.11895578289E+03  0.00000000000E+00 0.  1.
         21   -1    0    0  501  502 -0.00000000000E+00 -0.00000000000E+00 -0.43188341367E+03  0.43188341367E+03  0.00000000000E+00 0.  1.
      99926    2    1    2    0    0  0.00000000000E+00  0.00000000000E+00 -0.31292763078E+03  0.55083919656E+03  0.45332120882E+03 0.  0.
      99925    2    3    3    0    0  0.93073003483E+02  0.59129098483E+02 -0.21761701556E+03  0.35877031377E+03  0.26305919166E+03 0.  0.
         25    1    4    4    0    0  0.86429689231E+02  0.22827943470E+02 -0.13311632254E+03  0.20336831024E+03  0.12509000000E+03 0.  0.
         25    1    4    4    0    0  0.66433142521E+01  0.36301155013E+02 -0.84500693019E+02  0.15540200353E+03  0.12509000000E+03 0.  0.
         25    1    3    3    0    0 -0.93073003483E+02 -0.59129098483E+02 -0.95310615216E+02  0.19206888279E+03  0.12509000000E+03 0.  0.
<mgrwt>
<rscale>  2 0.45332121E+03</rscale>
<asrwt>0</asrwt>
<pdfrwt beam="1">  1       21 0.17493497E-01 0.45332121E+03</pdfrwt>
<pdfrwt beam="2">  1       21 0.63512267E-01 0.45332121E+03</pdfrwt>
<totfact> 0.62638931E+04</totfact>
</mgrwt>
</event>
<event>
 7    0  0.4709932E-002  0.4499470E+03  0.7546771E-02  0.1027738E+00
         21   -1    0    0  502  501  0.00000000000E+00  0.00000000000E+00  0.30075357056E+02  0.30075357056E+02  0.00000000000E+00 0. -1.
         21   -1    0    0  501  502 -0.00000000000E+00 -0.00000000000E+00 -0.16828750007E+04  0.16828750007E+04  0.00000000000E+00 0. -1.
      99926    2    1    2    0    0  0.00000000000E+00  0.00000000000E+00 -0.16527996436E+04  0.17129503577E+04  0.44994695921E+03 0.  0.
      99925    2    3    3    0    0 -0.79814471642E+02  0.64133173365E+02 -0.90915380674E+03  0.95193783969E+03  0.26294788935E+03 0.  0.
         25    1    3    3    0    0  0.79814471642E+02 -0.64133173365E+02 -0.74364583687E+03  0.76101251803E+03  0.12509000000E+03 0.  0.
         25    1    4    4    0    0 -0.21947403283E+02  0.34528789060E+02 -0.31699680047E+03  0.34323229072E+03  0.12509000000E+03 0.  0.
         25    1    4    4    0    0 -0.57867068359E+02  0.29604384305E+02 -0.59215700627E+03  0.60870554897E+03  0.12509000000E+03 0.  0.
<mgrwt>
<rscale>  2 0.44994696E+03</rscale>
<asrwt>0</asrwt>
<pdfrwt beam="1">  1       21 0.44228471E-02 0.44994696E+03</pdfrwt>
<pdfrwt beam="2">  1       21 0.24748159E+00 0.44994696E+03</pdfrwt>
<totfact> 0.19757384E+04</totfact>
</mgrwt>
</event>
<event>
 7    0  0.4709932E-002  0.4543574E+03  0.7546771E-02  0.1026431E+00
         21   -1    0    0  502  501  0.00000000000E+00  0.00000000000E+00  0.34809783908E+02  0.34809783908E+02  0.00000000000E+00 0. -1.
         21   -1    0    0  501  502 -0.00000000000E+00 -0.00000000000E+00 -0.14826336973E+04  0.14826336973E+04  0.00000000000E+00 0. -1.
      99926    2    1    2    0    0  0.00000000000E+00  0.00000000000E+00 -0.14478239134E+04  0.15174434813E+04  0.45435738629E+03 0.  0.
      99925    2    3    3    0    0 -0.33487000080E+02  0.39136889424E+02 -0.57706980503E+03  0.63624356030E+03  0.26295100846E+03 0.  0.
         25    1    3    3    0    0  0.33487000080E+02 -0.39136889424E+02 -0.87075410841E+03  0.88119992096E+03  0.12509000000E+03 0.  0.
         25    1    4    4    0    0  0.36120528741E+01  0.54377819222E+02 -0.28373438249E+03  0.31483758044E+03  0.12509000000E+03 0.  0.
         25    1    4    4    0    0 -0.37099052955E+02 -0.15240929798E+02 -0.29333542254E+03  0.32140597986E+03  0.12509000000E+03 0.  0.
<mgrwt>
<rscale>  2 0.45435739E+03</rscale>
<asrwt>0</asrwt>
<pdfrwt beam="1">  1       21 0.51190850E-02 0.45435739E+03</pdfrwt>
<pdfrwt beam="2">  1       21 0.21803440E+00 0.45435739E+03</pdfrwt>
<totfact> 0.23471751E+04</totfact>
</mgrwt>
</event>
<event>
 7    0  0.4709932E-002  0.4596300E+03  0.7546771E-02  0.1024889E+00
         21   -1    0    0  502  501  0.00000000000E+00  0.00000000000E+00  0.35963507006E+03  0.35963507006E+03  0.00000000000E+00 0.  1.
         21   -1    0    0  501  502 -0.00000000000E+00 -0.00000000000E+00 -0.14685699256E+03  0.14685699256E+03  0.00000000000E+00 0.  1.
      99926    2    1    2    0    0  0.00000000000E+00  0.35527136788E-14  0.21277807750E+03  0.50649206261E+03  0.45962995902E+03 0.  0.
      99925    2    3    3    0    0 -0.35924021021E+02  0.46372900715E+01  0.99873126079E+01  0.26548658099E+03  0.26281426622E+03 0.  0.
         25    1    4    4    0    0 -0.90527329254E+01  0.40779980291E+02  0.12850737054E+02  0.13250512559E+03  0.12509000000E+03 0.  0.
         25    1    3    3    0    0  0.35924021021E+02 -0.46372900715E+01  0.20279076489E+03  0.24100548162E+03  0.12509000000E+03 0.  0.
         25    1    4    4    0    0 -0.26871288096E+02 -0.36142690219E+02 -0.28634244458E+01  0.13298145540E+03  0.12509000000E+03 0.  0.
<mgrwt>
<rscale>  2 0.45962996E+03</rscale>
<asrwt>0</asrwt>
<pdfrwt beam="1">  1       21 0.52887510E-01 0.45962996E+03</pdfrwt>
<pdfrwt beam="2">  1       21 0.21596617E-01 0.45962996E+03</pdfrwt>
<totfact> 0.62488697E+04</totfact>
</mgrwt>
</event>
<event>
 7    0  0.4709932E-002  0.4582346E+03  0.7546771E-02  0.1025294E+00
         21   -1    0    0  502  501  0.00000000000E+00  0.00000000000E+00  0.39224871850E+02  0.39224871850E+02  0.00000000000E+00 0. -1.
         21   -1    0    0  501  502 -0.00000000000E+00 -0.00000000000E+00 -0.13383020462E+04  0.13383020462E+04  0.00000000000E+00 0. -1.
      99926    2    1    2    0    0  0.00000000000E+00 -0.14210854715E-13 -0.12990771744E+04  0.13775269181E+04  0.45823455243E+03 0.  0.
      99925    2    3    3    0    0 -0.47965623898E+02 -0.10570805677E+03 -0.80127039153E+03  0.85128173236E+03  0.26300466378E+03 0.  0.
         25    1    4    4    0    0 -0.20990672606E+02 -0.95773666466E+02 -0.45885979807E+03  0.48560583389E+03  0.12509000000E+03 0.  0.
         25    1    4    4    0    0 -0.26974951292E+02 -0.99343903025E+01 -0.34241059346E+03  0.36567589847E+03  0.12509000000E+03 0.  0.
         25    1    3    3    0    0  0.47965623898E+02  0.10570805677E+03 -0.49780678286E+03  0.52624518573E+03  0.12509000000E+03 0.  0.
<mgrwt>
<rscale>  2 0.45823455E+03</rscale>
<asrwt>0</asrwt>
<pdfrwt beam="1">  1       21 0.57683631E-02 0.45823455E+03</pdfrwt>
<pdfrwt beam="2">  1       21 0.19680914E+00 0.45823455E+03</pdfrwt>
<totfact> 0.26270430E+04</totfact>
</mgrwt>
</event>
<event>
 7    0  0.4709932E-002  0.4537408E+03  0.7546771E-02  0.1026612E+00
         21   -1    0    0  502  501  0.00000000000E+00  0.00000000000E+00  0.95876239850E+02  0.95876239850E+02  0.00000000000E+00 0. -1.
         21   -1    0    0  501  502 -0.00000000000E+00 -0.00000000000E+00 -0.53683984261E+03  0.53683984261E+03  0.00000000000E+00 0. -1.
      99926    2    1    2    0    0  0.00000000000E+00  0.00000000000E+00 -0.44096360276E+03  0.63271608246E+03  0.45374083136E+03 0.  0.
      99925    2    3    3    0    0  0.80650615970E+02 -0.75140266023E+02 -0.24996803641E+03  0.37918621065E+03  0.26295927762E+03 0.  0.
         25    1    4    4    0    0  0.65729038483E+02 -0.79705725843E+01 -0.10998162238E+03  0.17924090462E+03  0.12509000000E+03 0.  0.
         25    1    3    3    0    0 -0.80650615970E+02  0.75140266023E+02 -0.19099556635E+03  0.25352987181E+03  0.12509000000E+03 0.  0.
         25    1    4    4    0    0  0.14921577486E+02 -0.67169693439E+02 -0.13998641403E+03  0.19994530603E+03  0.12509000000E+03 0.  0.
<mgrwt>
<rscale>  2 0.45374083E+03</rscale>
<asrwt>0</asrwt>
<pdfrwt beam="1">  1       21 0.14099447E-01 0.45374083E+03</pdfrwt>
<pdfrwt beam="2">  1       21 0.78947035E-01 0.45374083E+03</pdfrwt>
<totfact> 0.57275511E+04</totfact>
</mgrwt>
</event>
<event>
 7    0  0.4709932E-002  0.4534675E+03  0.7546771E-02  0.1026693E+00
         21   -1    0    0  502  501  0.00000000000E+00  0.00000000000E+00  0.19763424800E+03  0.19763424800E+03  0.00000000000E+00 0.  1.
         21   -1    0    0  501  502 -0.00000000000E+00 -0.00000000000E+00 -0.26011788846E+03  0.26011788846E+03  0.00000000000E+00 0.  1.
      99926    2    1    2    0    0  0.00000000000E+00  0.00000000000E+00 -0.62483640458E+02  0.45775213645E+03  0.45346754360E+03 0.  0.
      99925    2    3    3    0    0 -0.10193268041E+03  0.40834976956E+02 -0.23508497676E+02  0.28680086698E+03  0.26390210526E+03 0.  0.
         25    1    3    3    0    0  0.10193268041E+03 -0.40834976956E+02 -0.38975142782E+02  0.17095126947E+03  0.12509000000E+03 0.  0.
         25    1    4    4    0    0 -0.46133275484E+02  0.34129437809E+02 -0.51305256517E+02  0.14687693855E+03  0.12509000000E+03 0.  0.
         25    1    4    4    0    0 -0.55799404926E+02  0.67055391469E+01  0.27796758841E+02  0.13992392843E+03  0.12509000000E+03 0.  0.
<mgrwt>
<rscale>  2 0.45346754E+03</rscale>
<asrwt>0</asrwt>
<pdfrwt beam="1">  1       21 0.29063860E-01 0.45346754E+03</pdfrwt>
<pdfrwt beam="2">  1       21 0.38252630E-01 0.45346754E+03</pdfrwt>
<totfact> 0.69186369E+04</totfact>
</mgrwt>
</event>
<event>
 7    0  0.4709932E-002  0.4894715E+03  0.7546771E-02  0.1016564E+00
         21   -1    0    0  502  501  0.00000000000E+00  0.00000000000E+00  0.28673451008E+03  0.28673451008E+03  0.00000000000E+00 0. -1.
         21   -1    0    0  501  502 -0.00000000000E+00 -0.00000000000E+00 -0.20888867069E+03  0.20888867069E+03  0.00000000000E+00 0. -1.
      99926    2    1    2    0    0  0.00000000000E+00 -0.14210854715E-13  0.77845839383E+02  0.49562318077E+03  0.48947151358E+03 0.  0.
      99925    2    3    3    0    0  0.87975957640E+02  0.10567065534E+03  0.74744677270E+01  0.29686278589E+03  0.26299351600E+03 0.  0.
         25    1    4    4    0    0  0.26443719713E+02  0.16091038464E+02 -0.14624999393E+02  0.12969036409E+03  0.12509000000E+03 0.  0.
         25    1    3    3    0    0 -0.87975957640E+02 -0.10567065534E+03  0.70371371656E+02  0.19876039488E+03  0.12509000000E+03 0.  0.
         25    1    4    4    0    0  0.61532237927E+02  0.89579616878E+02  0.22099467120E+02  0.16717242180E+03  0.12509000000E+03 0.  0.
<mgrwt>
<rscale>  2 0.48947151E+03</rscale>
<asrwt>0</asrwt>
<pdfrwt beam="1">  1       21 0.42166840E-01 0.48947151E+03</pdfrwt>
<pdfrwt beam="2">  1       21 0.30718922E-01 0.48947151E+03</pdfrwt>
<totfact> 0.50325297E+04</totfact>
</mgrwt>
</event>
<event>
 7    0  0.4709932E-002  0.4569764E+03  0.7546771E-02  0.1025662E+00
         21   -1    0    0  502  501  0.00000000000E+00  0.00000000000E+00  0.65396475831E+03  0.65396475831E+03  0.00000000000E+00 0. -1.
         21   -1    0    0  501  502 -0.00000000000E+00 -0.00000000000E+00 -0.79831297141E+02  0.79831297141E+02  0.00000000000E+00 0. -1.
      99926    2    1    2    0    0  0.00000000000E+00  0.00000000000E+00  0.57413346117E+03  0.73379605545E+03  0.45697638862E+03 0.  0.
      99925    2    3    3    0    0 -0.10718260231E+03  0.41555017898E+02  0.35198469564E+03  0.45413105607E+03  0.26291987443E+03 0.  0.
         25    1    4    4    0    0 -0.93898338904E+02  0.37489736021E+02  0.20687791088E+03  0.26204647769E+03  0.12509000000E+03 0.  0.
         25    1    4    4    0    0 -0.13284263411E+02  0.40652818763E+01  0.14510678475E+03  0.19208457838E+03  0.12509000000E+03 0.  0.
         25    1    3    3    0    0  0.10718260231E+03 -0.41555017898E+02  0.22214876553E+03  0.27966499938E+03  0.12509000000E+03 0.  0.
<mgrwt>
<rscale>  2 0.45697639E+03</rscale>
<asrwt>0</asrwt>
<pdfrwt beam="1">  1       21 0.96171285E-01 0.45697639E+03</pdfrwt>
<pdfrwt beam="2">  1       21 0.11739897E-01 0.45697639E+03</pdfrwt>
<totfact> 0.50319657E+04</totfact>
</mgrwt>
</event>
<event>
 7    0  0.4709932E-002  0.4480435E+03  0.7546771E-02  0.1028307E+00
         21   -1    0    0  502  501  0.00000000000E+00  0.00000000000E+00  0.80086852901E+03  0.80086852901E+03  0.00000000000E+00 0.  1.
         21   -1    0    0  501  502 -0.00000000000E+00 -0.00000000000E+00 -0.62664141172E+02  0.62664141172E+02  0.00000000000E+00 0.  1.
      99926    2    1    2    0    0  0.00000000000E+00  0.00000000000E+00  0.73820438783E+03  0.86353267018E+03  0.44804347361E+03 0.  0.
      99925    2    3    3    0    0  0.10335426642E+03  0.24873891131E+02  0.46784198782E+03  0.54723510413E+03  0.26322864353E+03 0.  0.
         25    1    3    3    0    0 -0.10335426642E+03 -0.24873891131E+02  0.27036240001E+03  0.31629756605E+03  0.12509000000E+03 0.  0.
         25    1    4    4    0    0  0.64255054400E+02 -0.20737716678E+02  0.19722560143E+03  0.24311357607E+03  0.12509000000E+03 0.  0.
         25    1    4    4    0    0  0.39099212021E+02  0.45611607810E+02  0.27061638639E+03  0.30412152807E+03  0.12509000000E+03 0.  0.
<mgrwt>
<rscale>  2 0.44804347E+03</rscale>
<asrwt>0</asrwt>
<pdfrwt beam="1">  1       21 0.11777478E+00 0.44804347E+03</pdfrwt>
<pdfrwt beam="2">  1       21 0.92153154E-02 0.44804347E+03</pdfrwt>
<totfact> 0.47372079E+04</totfact>
</mgrwt>
</event>
<event>
 7    0  0.4709932E-002  0.4571474E+03  0.7546771E-02  0.1025612E+00
         21   -1    0    0  502  501  0.00000000000E+00  0.00000000000E+00  0.13298497686E+03  0.13298497686E+03  0.00000000000E+00 0. -1.
         21   -1    0    0  501  502 -0.00000000000E+00 -0.00000000000E+00 -0.39287104421E+03  0.39287104421E+03  0.00000000000E+00 0. -1.
      99926    2    1    2    0    0  0.00000000000E+00  0.17763568394E-14 -0.25988606735E+03  0.52585602107E+03  0.45714744546E+03 0.  0.
      99925    2    3    3    0    0 -0.10569284895E+03 -0.94263766816E+01 -0.10869154360E+03  0.30277055088E+03  0.26190899170E+03 0.  0.
         25    1    4    4    0    0 -0.79531883228E+02 -0.30588617293E+02 -0.75028748095E+02  0.16893136209E+03  0.12509000000E+03 0.  0.
         25    1    4    4    0    0 -0.26160965722E+02  0.21162240611E+02 -0.33662795508E+02  0.13383918879E+03  0.12509000000E+03 0.  0.
         25    1    3    3    0    0  0.10569284895E+03  0.94263766816E+01 -0.15119452375E+03  0.22308547018E+03  0.12509000000E+03 0.  0.
<mgrwt>
<rscale>  2 0.45714745E+03</rscale>
<asrwt>0</asrwt>
<pdfrwt beam="1">  1       21 0.19556614E-01 0.45714745E+03</pdfrwt>
<pdfrwt beam="2">  1       21 0.57775154E-01 0.45714745E+03</pdfrwt>
<totfact> 0.62418536E+04</totfact>
</mgrwt>
</event>
<event>
 7    0  0.4709932E-002  0.4568999E+03  0.7546771E-02  0.1025684E+00
         21   -1    0    0  502  501  0.00000000000E+00  0.00000000000E+00  0.51375726009E+03  0.51375726009E+03  0.00000000000E+00 0. -1.
         21   -1    0    0  501  502 -0.00000000000E+00 -0.00000000000E+00 -0.10158373708E+03  0.10158373708E+03  0.00000000000E+00 0. -1.
      99926    2    1    2    0    0  0.00000000000E+00  0.00000000000E+00  0.41217352301E+03  0.61534099717E+03  0.45689991215E+03 0.  0.
      99925    2    3    3    0    0 -0.19219477752E+02 -0.38317522715E+02  0.40252201174E+03  0.48275788874E+03  0.26304674172E+03 0.  0.
         25    1    3    3    0    0  0.19219477752E+02  0.38317522715E+02  0.96515112694E+01  0.13258310843E+03  0.12509000000E+03 0.  0.
         25    1    4    4    0    0 -0.31523282874E+02  0.11194883387E+02  0.16801328026E+03  0.21212028008E+03  0.12509000000E+03 0.  0.
         25    1    4    4    0    0  0.12303805122E+02 -0.49512406102E+02  0.23450873148E+03  0.27063760866E+03  0.12509000000E+03 0.  0.
<mgrwt>
<rscale>  2 0.45689991E+03</rscale>
<asrwt>0</asrwt>
<pdfrwt beam="1">  1       21 0.75552537E-01 0.45689991E+03</pdfrwt>
<pdfrwt beam="2">  1       21 0.14938785E-01 0.45689991E+03</pdfrwt>
<totfact> 0.56885407E+04</totfact>
</mgrwt>
</event>
<event>
 7    0  0.4709932E-002  0.4515792E+03  0.7546771E-02  0.1027252E+00
         21   -1    0    0  502  501  0.00000000000E+00  0.00000000000E+00  0.30715803712E+03  0.30715803712E+03  0.00000000000E+00 0. -1.
         21   -1    0    0  501  502 -0.00000000000E+00 -0.00000000000E+00 -0.16597623367E+03  0.16597623367E+03  0.00000000000E+00 0. -1.
      99926    2    1    2    0    0  0.14210854715E-13  0.00000000000E+00  0.14118180345E+03  0.47313427079E+03  0.45157915870E+03 0.  0.
      99925    2    3    3    0    0 -0.10253069242E+03 -0.26392576461E+01  0.13125296761E+03  0.31106762262E+03  0.26270937510E+03 0.  0.
         25    1    3    3    0    0  0.10253069242E+03  0.26392576461E+01  0.99288358347E+01  0.16206664818E+03  0.12509000000E+03 0.  0.
         25    1    4    4    0    0 -0.13708222109E+02  0.90657419868E+01  0.40860727269E+02  0.13261677935E+03  0.12509000000E+03 0.  0.
         25    1    4    4    0    0 -0.88822470316E+02 -0.11704999633E+02  0.90392240344E+02  0.17845084327E+03  0.12509000000E+03 0.  0.
<mgrwt>
<rscale>  2 0.45157916E+03</rscale>
<asrwt>0</asrwt>
<pdfrwt beam="1">  1       21 0.45170300E-01 0.45157916E+03</pdfrwt>
<pdfrwt beam="2">  1       21 0.24408270E-01 0.45157916E+03</pdfrwt>
<totfact> 0.69059198E+04</totfact>
</mgrwt>
</event>
<event>
 6    0  0.4709932E-002  0.4584371E+03  0.7546771E-02  0.1025235E+00
         21   -1    0    0  502  501  0.00000000000E+00  0.00000000000E+00  0.47868075736E+03  0.47868075736E+03  0.00000000000E+00 0.  1.
         21   -1    0    0  501  502 -0.00000000000E+00 -0.00000000000E+00 -0.10976241327E+03  0.10976241327E+03  0.00000000000E+00 0.  1.
      99926    2    1    2    0    0  0.00000000000E+00  0.00000000000E+00  0.36891834408E+03  0.58844317063E+03  0.45843714996E+03 0.  0.
         25    1    3    3    0    0  0.89002064384E+02 -0.26553678821E+02  0.18286312961E+03  0.24023508818E+03  0.12509000000E+03 0.  0.
         25    1    3    3    0    0 -0.23695108902E+02 -0.36814143020E+02  0.12414048261E+03  0.18159049214E+03  0.12509000000E+03 0.  0.
         25    1    3    3    0    0 -0.65306955482E+02  0.63367821841E+02  0.61914731859E+02  0.16661759031E+03  0.12509000000E+03 0.  0.
<mgrwt>
<rscale>  2 0.45843715E+03</rscale>
<asrwt>0</asrwt>
<pdfrwt beam="1">  1       21 0.70394228E-01 0.45843715E+03</pdfrwt>
<pdfrwt beam="2">  1       21 0.16141532E-01 0.45843715E+03</pdfrwt>
<totfact> 0.57808739E+04</totfact>
</mgrwt>
</event>
<event>
 7    0  0.4709932E-002  0.4306936E+03  0.7546771E-02  0.1033641E+00
         21   -1    0    0  502  501  0.00000000000E+00  0.00000000000E+00  0.50038701086E+03  0.50038701086E+03  0.00000000000E+00 0.  1.
         21   -1    0    0  501  502 -0.00000000000E+00 -0.00000000000E+00 -0.92676752804E+02  0.92676752804E+02  0.00000000000E+00 0.  1.
      99926    2    1    2    0    0  0.00000000000E+00  0.00000000000E+00  0.40771025805E+03  0.59306376366E+03  0.43069359555E+03 0.  0.
      99925    2    3    3    0    0 -0.50223002575E+02 -0.64434350308E+02  0.21681195384E+03  0.35065129257E+03  0.26320100716E+03 0.  0.
         25    1    4    4    0    0 -0.50240093878E+02 -0.88719239445E+01  0.13603766351E+03  0.19171993131E+03  0.12509000000E+03 0.  0.
         25    1    4    4    0    0  0.17091302149E-01 -0.55562426363E+02  0.80774290327E+02  0.15893136126E+03  0.12509000000E+03 0.  0.
         25    1    3    3    0    0  0.50223002575E+02  0.64434350308E+02  0.19089830421E+03  0.24241247109E+03  0.12509000000E+03 0.  0.
<mgrwt>
<rscale>  2 0.43069360E+03</rscale>
<asrwt>0</asrwt>
<pdfrwt beam="1">  1       21 0.73586324E-01 0.43069360E+03</pdfrwt>
<pdfrwt beam="2">  1       21 0.13628934E-01 0.43069360E+03</pdfrwt>
<totfact> 0.71965197E+04</totfact>
</mgrwt>
</event>
<event>
 7    0  0.4709932E-002  0.4526533E+03  0.7546771E-02  0.1026934E+00
         21   -1    0    0  502  501  0.00000000000E+00  0.00000000000E+00  0.57086006123E+03  0.57086006123E+03  0.00000000000E+00 0.  1.
         21   -1    0    0  501  502 -0.00000000000E+00 -0.00000000000E+00 -0.89730849776E+02  0.89730849776E+02  0.00000000000E+00 0.  1.
      99926    2    1    2    0    0  0.00000000000E+00  0.00000000000E+00  0.48112921145E+03  0.66059091101E+03  0.45265332605E+03 0.  0.
      99925    2    3    3    0    0 -0.50802542320E+02 -0.97976797498E+02  0.31918283052E+03  0.42809469695E+03  0.26307230774E+03 0.  0.
         25    1    4    4    0    0 -0.47195140587E+02 -0.49158128032E+02  0.21586718248E+03  0.25863111069E+03  0.12509000000E+03 0.  0.
         25    1    4    4    0    0 -0.36074017331E+01 -0.48818669466E+02  0.10331564804E+03  0.16946358625E+03  0.12509000000E+03 0.  0.
         25    1    3    3    0    0  0.50802542320E+02  0.97976797498E+02  0.16194638093E+03  0.23249621406E+03  0.12509000000E+03 0.  0.
<mgrwt>
<rscale>  2 0.45265333E+03</rscale>
<asrwt>0</asrwt>
<pdfrwt beam="1">  1       21 0.83950007E-01 0.45265333E+03</pdfrwt>
<pdfrwt beam="2">  1       21 0.13195713E-01 0.45265333E+03</pdfrwt>
<totfact> 0.56126327E+04</totfact>
</mgrwt>
</event>
<event>
 7    0  0.4709932E-002  0.4524874E+03  0.7546771E-02  0.1026983E+00
         21   -1    0    0  502  501  0.00000000000E+00  0.00000000000E+00  0.11659791643E+04  0.11659791643E+04  0.00000000000E+00 0.  1.
         21   -1    0    0  501  502 -0.00000000000E+00 -0.00000000000E+00 -0.43899760175E+02  0.43899760175E+02  0.00000000000E+00 0.  1.
      99926    2    1    2    0    0  0.35527136788E-14  0.00000000000E+00  0.11220794041E+04  0.12098789245E+04  0.45248737300E+03 0.  0.
      99925    2    3    3    0    0  0.14587490948E+02  0.10836238905E+03  0.64883154591E+03  0.70831512429E+03  0.26224556826E+03 0.  0.
         25    1    3    3    0    0 -0.14587490948E+02 -0.10836238905E+03  0.47324785819E+03  0.50156380017E+03  0.12509000000E+03 0.  0.
         25    1    4    4    0    0  0.28441669023E+02  0.87617045601E+02  0.32332378864E+03  0.35870803674E+03  0.12509000000E+03 0.  0.
         25    1    4    4    0    0 -0.13854178074E+02  0.20745343452E+02  0.32550775727E+03  0.34960708755E+03  0.12509000000E+03 0.  0.
<mgrwt>
<rscale>  2 0.45248737E+03</rscale>
<asrwt>0</asrwt>
<pdfrwt beam="1">  1       21 0.17146750E+00 0.45248737E+03</pdfrwt>
<pdfrwt beam="2">  1       21 0.64558478E-02 0.45248737E+03</pdfrwt>
<totfact> 0.32475352E+04</totfact>
</mgrwt>
</event>
<event>
 7    0  0.4709932E-002  0.4648982E+03  0.7546771E-02  0.1023370E+00
         21   -1    0    0  502  501  0.00000000000E+00  0.00000000000E+00  0.91914834408E+02  0.91914834408E+02  0.00000000000E+00 0. -1.
         21   -1    0    0  501  502 -0.00000000000E+00 -0.00000000000E+00 -0.58785487647E+03  0.58785487647E+03  0.00000000000E+00 0. -1.
      99926    2    1    2    0    0  0.00000000000E+00  0.14210854715E-13 -0.49594004206E+03  0.67976971088E+03  0.46489819800E+03 0.  0.
      99925    2    3    3    0    0 -0.28238499216E+02  0.81596469759E+02 -0.18302055853E+03  0.33188825408E+03  0.26305492132E+03 0.  0.
         25    1    4    4    0    0 -0.23254176948E+02  0.81865784637E+02 -0.10876192134E+03  0.18633149780E+03  0.12509000000E+03 0.  0.
         25    1    4    4    0    0 -0.49843222673E+01 -0.26931487764E+00 -0.74258637195E+02  0.14555675627E+03  0.12509000000E+03 0.  0.
         25    1    3    3    0    0  0.28238499216E+02 -0.81596469759E+02 -0.31291948353E+03  0.34788145680E+03  0.12509000000E+03 0.  0.
<mgrwt>
<rscale>  2 0.46489820E+03</rscale>
<asrwt>0</asrwt>
<pdfrwt beam="1">  1       21 0.13516888E-01 0.46489820E+03</pdfrwt>
<pdfrwt beam="2">  1       21 0.86449246E-01 0.46489820E+03</pdfrwt>
<totfact> 0.49999767E+04</totfact>
</mgrwt>
</event>
<event>
 7    0  0.4709932E-002  0.4529305E+03  0.7546771E-02  0.1026852E+00
         21   -1    0    0  502  501  0.00000000000E+00  0.00000000000E+00  0.23816305732E+03  0.23816305732E+03  0.00000000000E+00 0. -1.
         21   -1    0    0  501  502 -0.00000000000E+00 -0.00000000000E+00 -0.21534197912E+03  0.21534197912E+03  0.00000000000E+00 0. -1.
      99926    2    1    2    0    0  0.00000000000E+00  0.00000000000E+00  0.22821078200E+02  0.45350503644E+03  0.45293047642E+03 0.  0.
      99925    2    3    3    0    0  0.56226960490E+02 -0.26967576469E+02 -0.78056606112E+02  0.28113178864E+03  0.26278037894E+03 0.  0.
         25    1    4    4    0    0  0.51158801493E+02  0.77705330966E+00 -0.71105997134E+02  0.15271344967E+03  0.12509000000E+03 0.  0.
         25    1    3    3    0    0 -0.56226960490E+02  0.26967576469E+02  0.10087768431E+03  0.17237324780E+03  0.12509000000E+03 0.  0.
         25    1    4    4    0    0  0.50681589971E+01 -0.27744629778E+02 -0.69506089787E+01  0.12841833896E+03  0.12509000000E+03 0.  0.
<mgrwt>
<rscale>  2 0.45293048E+03</rscale>
<asrwt>0</asrwt>
<pdfrwt beam="1">  1       21 0.35023979E-01 0.45293048E+03</pdfrwt>
<pdfrwt beam="2">  1       21 0.31667938E-01 0.45293048E+03</pdfrwt>
<totfact> 0.69800962E+04</totfact>
</mgrwt>
</event>
<event>
 7    0  0.4709932E-002  0.4622115E+03  0.7546771E-02  0.1024142E+00
         21   -1    0    0  502  501  0.00000000000E+00  0.00000000000E+00  0.26418118811E+03  0.26418118811E+03  0.00000000000E+00 0.  1.
         21   -1    0    0  501  502 -0.00000000000E+00 -0.00000000000E+00 -0.20217131171E+03  0.20217131171E+03  0.00000000000E+00 0.  1.
      99926    2    1    2    0    0  0.00000000000E+00  0.71054273576E-14  0.62009876391E+02  0.46635249982E+03  0.46221145520E+03 0.  0.
      99925    2    3    3    0    0  0.14195812890E+02  0.38063230538E+02 -0.74516602940E+02  0.27678109301E+03  0.26344775328E+03 0.  0.
         25    1    4    4    0    0 -0.48566822901E+01 -0.20979142626E+02 -0.35970326525E+02  0.13192833008E+03  0.12509000000E+03 0.  0.
         25    1    3    3    0    0 -0.14195812890E+02 -0.38063230538E+02  0.13652647933E+03  0.18957140681E+03  0.12509000000E+03 0.  0.
         25    1    4    4    0    0  0.19052495180E+02  0.59042373165E+02 -0.38546276415E+02  0.14485276292E+03  0.12509000000E+03 0.  0.
<mgrwt>
<rscale>  2 0.46221146E+03</rscale>
<asrwt>0</asrwt>
<pdfrwt beam="1">  1       21 0.38850175E-01 0.46221146E+03</pdfrwt>
<pdfrwt beam="2">  1       21 0.29731075E-01 0.46221146E+03</pdfrwt>
<totfact> 0.63961715E+04</totfact>
</mgrwt>
</event>
<event>
 7    0  0.4709932E-002  0.4624771E+03  0.7546771E-02  0.1024065E+00
         21   -1    0    0  502  501  0.00000000000E+00  0.00000000000E+00  0.24596104289E+03  0.24596104289E+03  0.00000000000E+00 0. -1.
         21   -1    0    0  501  502 -0.00000000000E+00 -0.00000000000E+00 -0.21739734734E+03  0.21739734734E+03  0.00000000000E+00 0. -1.
      99926    2    1    2    0    0  0.35527136788E-14  0.00000000000E+00  0.28563695545E+02  0.46335839023E+03  0.46247714873E+03 0.  0.
      99925    2    3    3    0    0 -0.24568851990E+02  0.23477993851E+02 -0.97509108245E+02  0.28253608896E+03  0.26299005816E+03 0.  0.
         25    1    3    3    0    0  0.24568851990E+02 -0.23477993851E+02  0.12607280379E+03  0.18082230128E+03  0.12509000000E+03 0.  0.
         25    1    4    4    0    0 -0.10965898221E+02  0.84019422025E+01 -0.91626934731E+02  0.15567224166E+03  0.12509000000E+03 0.  0.
         25    1    4    4    0    0 -0.13602953769E+02  0.15076051648E+02 -0.58821735140E+01  0.12686384729E+03  0.12509000000E+03 0.  0.
<mgrwt>
<rscale>  2 0.46247715E+03</rscale>
<asrwt>0</asrwt>
<pdfrwt beam="1">  1       21 0.36170741E-01 0.46247715E+03</pdfrwt>
<pdfrwt beam="2">  1       21 0.31970198E-01 0.46247715E+03</pdfrwt>
<totfact> 0.64031623E+04</totfact>
</mgrwt>
</event>
<event>
 7    0  0.4709932E-002  0.4552482E+03  0.7546771E-02  0.1026168E+00
         21   -1    0    0  502  501  0.00000000000E+00  0.00000000000E+00  0.88709898137E+03  0.88709898137E+03  0.00000000000E+00 0. -1.
         21   -1    0    0  501  502 -0.00000000000E+00 -0.00000000000E+00 -0.58406935636E+02  0.58406935636E+02  0.00000000000E+00 0. -1.
      99926    2    1    2    0    0  0.00000000000E+00  0.00000000000E+00  0.82869204573E+03  0.94550591701E+03  0.45524820970E+03 0.  0.
      99925    2    3    3    0    0  0.34626424338E+02 -0.83703411619E+02  0.66292902159E+03  0.71894436102E+03  0.26306055613E+03 0.  0.
         25    1    4    4    0    0 -0.13215269142E+02 -0.57060149311E+02  0.39051623003E+03  0.41422329484E+03  0.12509000000E+03 0.  0.
         25    1    4    4    0    0  0.47841693480E+02 -0.26643262307E+02  0.27241279157E+03  0.30472106617E+03  0.12509000000E+03 0.  0.
         25    1    3    3    0    0 -0.34626424338E+02  0.83703411619E+02  0.16576302414E+03  0.22656155599E+03  0.12509000000E+03 0.  0.
<mgrwt>
<rscale>  2 0.45524821E+03</rscale>
<asrwt>0</asrwt>
<pdfrwt beam="1">  1       21 0.13045572E+00 0.45524821E+03</pdfrwt>
<pdfrwt beam="2">  1       21 0.85892558E-02 0.45524821E+03</pdfrwt>
<totfact> 0.41243204E+04</totfact>
</mgrwt>
</event>
<event>
 7    0  0.4709932E-002  0.4450487E+03  0.7546771E-02  0.1029209E+00
         21   -1    0    0  502  501  0.00000000000E+00  0.00000000000E+00  0.72021050292E+03  0.72021050292E+03  0.00000000000E+00 0.  1.
         21   -1    0    0  501  502 -0.00000000000E+00 -0.00000000000E+00 -0.68753618935E+02  0.68753618935E+02  0.00000000000E+00 0.  1.
      99926    2    1    2    0    0  0.00000000000E+00  0.71054273576E-14  0.65145688398E+03  0.78896412185E+03  0.44504866462E+03 0.  0.
      99925    2    3    3    0    0  0.19122350258E+02  0.56557106427E+02  0.26382480250E+03  0.37729616188E+03  0.26302945994E+03 0.  0.
         25    1    4    4    0    0 -0.15736774841E+01 -0.94869137439E+01  0.10492975795E+03  0.16355500664E+03  0.12509000000E+03 0.  0.
         25    1    4    4    0    0  0.20696027742E+02  0.66044020171E+02  0.15889504454E+03  0.21374115524E+03  0.12509000000E+03 0.  0.
         25    1    3    3    0    0 -0.19122350258E+02 -0.56557106427E+02  0.38763208149E+03  0.41166795997E+03  0.12509000000E+03 0.  0.
<mgrwt>
<rscale>  2 0.44504866E+03</rscale>
<asrwt>0</asrwt>
<pdfrwt beam="1">  1       21 0.10591331E+00 0.44504866E+03</pdfrwt>
<pdfrwt beam="2">  1       21 0.10110827E-01 0.44504866E+03</pdfrwt>
<totfact> 0.52267573E+04</totfact>
</mgrwt>
</event>
<event>
 7    0  0.4709932E-002  0.4567203E+03  0.7546771E-02  0.1025737E+00
         21   -1    0    0  502  501  0.00000000000E+00  0.00000000000E+00  0.16816077355E+04  0.16816077355E+04  0.00000000000E+00 0.  1.
         21   -1    0    0  501  502 -0.00000000000E+00 -0.00000000000E+00 -0.31011018847E+02  0.31011018847E+02  0.00000000000E+00 0.  1.
      99926    2    1    2    0    0  0.00000000000E+00  0.00000000000E+00  0.16505967167E+04  0.17126187544E+04  0.45672034848E+03 0.  0.
      99925    2    3    3    0    0  0.34507920386E+02  0.10950671102E+03  0.10429601575E+04  0.10817049627E+04  0.26293957471E+03 0.  0.
         25    1    4    4    0    0 -0.40344569746E+01  0.40564249216E+02  0.37055990334E+03  0.39322243733E+03  0.12509000000E+03 0.  0.
         25    1    4    4    0    0  0.38542377361E+02  0.68942461803E+02  0.67240025415E+03  0.68848252540E+03  0.12509000000E+03 0.  0.
         25    1    3    3    0    0 -0.34507920386E+02 -0.10950671102E+03  0.60763655920E+03  0.63091379166E+03  0.12509000000E+03 0.  0.
<mgrwt>
<rscale>  2 0.45672035E+03</rscale>
<asrwt>0</asrwt>
<pdfrwt beam="1">  1       21 0.24729519E+00 0.45672035E+03</pdfrwt>
<pdfrwt beam="2">  1       21 0.45604451E-02 0.45672035E+03</pdfrwt>
<totfact> 0.18748781E+04</totfact>
</mgrwt>
</event>
<event>
 7    0  0.4709932E-002  0.4703235E+03  0.7546771E-02  0.1021829E+00
         21   -1    0    0  502  501  0.00000000000E+00  0.00000000000E+00  0.36620199285E+03  0.36620199285E+03  0.00000000000E+00 0. -1.
         21   -1    0    0  501  502 -0.00000000000E+00 -0.00000000000E+00 -0.15101239906E+03  0.15101239906E+03  0.00000000000E+00 0. -1.
      99926    2    1    2    0    0 -0.71054273576E-14  0.00000000000E+00  0.21518959379E+03  0.51721439192E+03  0.47032346946E+03 0.  0.
      99925    2    3    3    0    0  0.30157336316E+02 -0.12337988181E+03  0.12969956639E+03  0.31950725230E+03  0.26292745498E+03 0.  0.
         25    1    3    3    0    0 -0.30157336316E+02  0.12337988181E+03  0.85490027403E+02  0.19770713961E+03  0.12509000000E+03 0.  0.
         25    1    4    4    0    0  0.39560339493E+02 -0.42248493328E+02  0.91071081266E+02  0.16520110651E+03  0.12509000000E+03 0.  0.
         25    1    4    4    0    0 -0.94030031768E+01 -0.81131388482E+02  0.38628485124E+02  0.15430614579E+03  0.12509000000E+03 0.  0.
<mgrwt>
<rscale>  2 0.47032347E+03</rscale>
<asrwt>0</asrwt>
<pdfrwt beam="1">  1       21 0.53853234E-01 0.47032347E+03</pdfrwt>
<pdfrwt beam="2">  1       21 0.22207706E-01 0.47032347E+03</pdfrwt>
<totfact> 0.56843421E+04</totfact>
</mgrwt>
</event>
<event>
 7    0  0.4709932E-002  0.4558022E+03  0.7546771E-02  0.1026006E+00
         21   -1    0    0  502  501  0.00000000000E+00  0.00000000000E+00  0.84417728500E+02  0.84417728500E+02  0.00000000000E+00 0. -1.
         21   -1    0    0  501  502 -0.00000000000E+00 -0.00000000000E+00 -0.61526069681E+03  0.61526069681E+03  0.00000000000E+00 0. -1.
      99926    2    1    2    0    0  0.00000000000E+00 -0.71054273576E-14 -0.53084296831E+03  0.69967842531E+03  0.45580219596E+03 0.  0.
      99925    2    3    3    0    0  0.20756997925E+02 -0.27213227004E+02 -0.50064755482E+03  0.56652181157E+03  0.26292123565E+03 0.  0.
         25    1    4    4    0    0  0.35225917816E+02  0.73503545487E+01 -0.30129774586E+03  0.32821141473E+03  0.12509000000E+03 0.  0.
         25    1    3    3    0    0 -0.20756997925E+02  0.27213227004E+02 -0.30195413497E+02  0.13315661374E+03  0.12509000000E+03 0.  0.
         25    1    4    4    0    0 -0.14468919891E+02 -0.34563581553E+02 -0.19934980895E+03  0.23831039684E+03  0.12509000000E+03 0.  0.
<mgrwt>
<rscale>  2 0.45580220E+03</rscale>
<asrwt>0</asrwt>
<pdfrwt beam="1">  1       21 0.12414372E-01 0.45580220E+03</pdfrwt>
<pdfrwt beam="2">  1       21 0.90479514E-01 0.45580220E+03</pdfrwt>
<totfact> 0.52587638E+04</totfact>
</mgrwt>
</event>
<event>
 7    0  0.4709932E-002  0.4586730E+03  0.7546771E-02  0.1025167E+00
         21   -1    0    0  502  501  0.00000000000E+00  0.00000000000E+00  0.12373826581E+04  0.12373826581E+04  0.00000000000E+00 0.  1.
         21   -1    0    0  501  502 -0.00000000000E+00 -0.00000000000E+00 -0.42505223149E+02  0.42505223149E+02  0.00000000000E+00 0.  1.
      99926    2    1    2    0    0  0.00000000000E+00  0.00000000000E+00  0.11948774350E+04  0.12798878813E+04  0.45867298156E+03 0.  0.
      99925    2    3    3    0    0  0.72067878266E+02  0.45310269217E+02  0.97210923947E+03  0.10105925478E+04  0.26278151520E+03 0.  0.
         25    1    4    4    0    0  0.22988270332E+01  0.52375352879E+00  0.48601080115E+03  0.50185612067E+03  0.12509000000E+03 0.  0.
         25    1    3    3    0    0 -0.72067878266E+02 -0.45310269217E+02  0.22276819549E+03  0.26929533341E+03  0.12509000000E+03 0.  0.
         25    1    4    4    0    0  0.69769051233E+02  0.44786515688E+02  0.48609843832E+03  0.50873642717E+03  0.12509000000E+03 0.  0.
<mgrwt>
<rscale>  2 0.45867298E+03</rscale>
<asrwt>0</asrwt>
<pdfrwt beam="1">  1       21 0.18196801E+00 0.45867298E+03</pdfrwt>
<pdfrwt beam="2">  1       21 0.62507689E-02 0.45867298E+03</pdfrwt>
<totfact> 0.28870411E+04</totfact>
</mgrwt>
</event>
<event>
 7    0  0.4709932E-002  0.4468415E+03  0.7546771E-02  0.1028668E+00
         21   -1    0    0  502  501  0.00000000000E+00  0.00000000000E+00  0.51075207964E+02  0.51075207964E+02  0.00000000000E+00 0.  1.
         21   -1    0    0  501  502 -0.00000000000E+00 -0.00000000000E+00 -0.97732030030E+03  0.97732030030E+03  0.00000000000E+00 0.  1.
      99926    2    1    2    0    0  0.00000000000E+00  0.71054273576E-14 -0.92624509234E+03  0.10283955083E+04  0.44684152710E+03 0.  0.
      99925    2    3    3    0    0 -0.91816748591E+02 -0.51543518383E+02 -0.57921209549E+03  0.64477270054E+03  0.26297934175E+03 0.  0.
         25    1    4    4    0    0 -0.60008933017E+02 -0.45088719878E+02 -0.38283436240E+03  0.40968734645E+03  0.12509000000E+03 0.  0.
         25    1    4    4    0    0 -0.31807815574E+02 -0.64547985042E+01 -0.19637773309E+03  0.23508535409E+03  0.12509000000E+03 0.  0.
         25    1    3    3    0    0  0.91816748591E+02  0.51543518383E+02 -0.34703299684E+03  0.38362280773E+03  0.12509000000E+03 0.  0.
<mgrwt>
<rscale>  2 0.44684153E+03</rscale>
<asrwt>0</asrwt>
<pdfrwt beam="1">  1       21 0.75110609E-02 0.44684153E+03</pdfrwt>
<pdfrwt beam="2">  1       21 0.14372356E+00 0.44684153E+03</pdfrwt>
<totfact> 0.40605558E+04</totfact>
</mgrwt>
</event>
<event>
 7    0  0.4709932E-002  0.4528410E+03  0.7546771E-02  0.1026878E+00
         21   -1    0    0  502  501  0.00000000000E+00  0.00000000000E+00  0.15285247174E+03  0.15285247174E+03  0.00000000000E+00 0. -1.
         21   -1    0    0  501  502 -0.00000000000E+00 -0.00000000000E+00 -0.33539683694E+03  0.33539683694E+03  0.00000000000E+00 0. -1.
      99926    2    1    2    0    0 -0.26645352591E-14  0.00000000000E+00 -0.18254436521E+03  0.48824930868E+03  0.45284096785E+03 0.  0.
      99925    2    3    3    0    0  0.28011493692E+01  0.10586552787E+03 -0.15149843569E+03  0.32143589715E+03  0.26297129792E+03 0.  0.
         25    1    4    4    0    0  0.40280932248E+02  0.46987690946E+02 -0.85953044359E+02  0.16390799412E+03  0.12509000000E+03 0.  0.
         25    1    3    3    0    0 -0.28011493692E+01 -0.10586552787E+03 -0.31045929517E+02  0.16681341154E+03  0.12509000000E+03 0.  0.
         25    1    4    4    0    0 -0.37479782879E+02  0.58877836924E+02 -0.65545391331E+02  0.15752790302E+03  0.12509000000E+03 0.  0.
<mgrwt>
<rscale>  2 0.45284097E+03</rscale>
<asrwt>0</asrwt>
<pdfrwt beam="1">  1       21 0.22478305E-01 0.45284097E+03</pdfrwt>
<pdfrwt beam="2">  1       21 0.49323064E-01 0.45284097E+03</pdfrwt>
<totfact> 0.67249614E+04</totfact>
</mgrwt>
</event>
<event>
 7    0  0.4709932E-002  0.4192285E+03  0.7546771E-02  0.1037318E+00
         21   -1    0    0  502  501  0.00000000000E+00  0.00000000000E+00  0.12755869384E+04  0.12755869384E+04  0.00000000000E+00 0. -1.
         21   -1    0    0  501  502 -0.00000000000E+00 -0.00000000000E+00 -0.34445418116E+02  0.34445418116E+02  0.00000000000E+00 0. -1.
      99926    2    1    2    0    0  0.71054273576E-14  0.00000000000E+00  0.12411415203E+04  0.13100323565E+04  0.41922846009E+03 0.  0.
      99925    2    3    3    0    0 -0.51830498378E+02  0.46304515701E+02  0.72311142675E+03  0.77260031929E+03  0.26304107878E+03 0.  0.
         25    1    3    3    0    0  0.51830498378E+02 -0.46304515701E+02  0.51803009355E+03  0.53743203725E+03  0.12509000000E+03 0.  0.
         25    1    4    4    0    0  0.15415702230E+02  0.19652472039E+02  0.33571048039E+03  0.35912796922E+03  0.12509000000E+03 0.  0.
         25    1    4    4    0    0 -0.67246200608E+02  0.26652043662E+02  0.38740094637E+03  0.41347235007E+03  0.12509000000E+03 0.  0.
<mgrwt>
<rscale>  2 0.41922846E+03</rscale>
<asrwt>0</asrwt>
<pdfrwt beam="1">  1       21 0.18758628E+00 0.41922846E+03</pdfrwt>
<pdfrwt beam="2">  1       21 0.50655035E-02 0.41922846E+03</pdfrwt>
<totfact> 0.38462662E+04</totfact>
</mgrwt>
</event>
<event>
 7    0  0.4709932E-002  0.4511327E+03  0.7546771E-02  0.1027385E+00
         21   -1    0    0  502  501  0.00000000000E+00  0.00000000000E+00  0.17010706456E+04  0.17010706456E+04  0.00000000000E+00 0. -1.
         21   -1    0    0  501  502 -0.00000000000E+00 -0.00000000000E+00 -0.29910680361E+02  0.29910680361E+02  0.00000000000E+00 0. -1.
      99926    2    1    2    0    0  0.00000000000E+00  0.00000000000E+00  0.16711599652E+04  0.17309813260E+04  0.45113270931E+03 0.  0.
      99925    2    3    3    0    0  0.11529528132E+02 -0.94663485966E+01  0.63894882474E+03  0.69111119539E+03  0.26297631450E+03 0.  0.
         25    1    4    4    0    0  0.88329569059E+01  0.43975951849E+01  0.42226665477E+03  0.44051560222E+03  0.12509000000E+03 0.  0.
         25    1    4    4    0    0  0.26965712261E+01 -0.13863943782E+02  0.21668216997E+03  0.25059559317E+03  0.12509000000E+03 0.  0.
         25    1    3    3    0    0 -0.11529528132E+02  0.94663485966E+01  0.10322111405E+04  0.10398701306E+04  0.12509000000E+03 0.  0.
<mgrwt>
<rscale>  2 0.45113271E+03</rscale>
<asrwt>0</asrwt>
<pdfrwt beam="1">  1       21 0.25015738E+00 0.45113271E+03</pdfrwt>
<pdfrwt beam="2">  1       21 0.43986306E-02 0.45113271E+03</pdfrwt>
<totfact> 0.19193982E+04</totfact>
</mgrwt>
</event>
<event>
 7    0  0.4709932E-002  0.4595045E+03  0.7546771E-02  0.1024925E+00
         21   -1    0    0  502  501  0.00000000000E+00  0.00000000000E+00  0.43257303498E+03  0.43257303498E+03  0.00000000000E+00 0. -1.
         21   -1    0    0  501  502 -0.00000000000E+00 -0.00000000000E+00 -0.12202818017E+03  0.12202818017E+03  0.00000000000E+00 0. -1.
      99926    2    1    2    0    0  0.00000000000E+00 -0.14210854715E-13  0.31054485481E+03  0.55460121515E+03  0.45950451684E+03 0.  0.
      99925    2    3    3    0    0 -0.35682021790E+02 -0.11157598780E+03  0.20061370434E+03  0.35099676118E+03  0.26311681866E+03 0.  0.
         25    1    3    3    0    0  0.35682021790E+02  0.11157598780E+03  0.10993115047E+03  0.20360445397E+03  0.12509000000E+03 0.  0.
         25    1    4    4    0    0 -0.27097313926E+02 -0.42090541337E+02  0.14307501555E+03  0.19652950483E+03  0.12509000000E+03 0.  0.
         25    1    4    4    0    0 -0.85847078635E+01 -0.69485446458E+02  0.57538688781E+02  0.15446725635E+03  0.12509000000E+03 0.  0.
<mgrwt>
<rscale>  2 0.45950452E+03</rscale>
<asrwt>0</asrwt>
<pdfrwt beam="1">  1       21 0.63613681E-01 0.45950452E+03</pdfrwt>
<pdfrwt beam="2">  1       21 0.17945321E-01 0.45950452E+03</pdfrwt>
<totfact> 0.59417624E+04</totfact>
</mgrwt>
</event>
<event>
 7    0  0.4709932E-002  0.4436229E+03  0.7546771E-02  0.1029641E+00
         21   -1    0    0  502  501  0.00000000000E+00  0.00000000000E+00  0.19276343255E+03  0.19276343255E+03  0.00000000000E+00 0.  1.
         21   -1    0    0  501  502 -0.00000000000E+00 -0.00000000000E+00 -0.25523673493E+03  0.25523673493E+03  0.00000000000E+00 0.  1.
      99926    2    1    2    0    0  0.35527136788E-14  0.00000000000E+00 -0.62473302382E+02  0.44800016749E+03  0.44362285396E+03 0.  0.
      99925    2    3    3    0    0  0.25950953688E+02  0.50417073677E+02  0.44311658757E+02  0.27402928101E+03  0.26441102556E+03 0.  0.
         25    1    3    3    0    0 -0.25950953688E+02 -0.50417073677E+02 -0.10678496114E+03  0.17397088647E+03  0.12509000000E+03 0.  0.
         25    1    4    4    0    0 -0.23231159737E+02  0.32728898271E+02 -0.96403579175E-01  0.13137117248E+03  0.12509000000E+03 0.  0.
         25    1    4    4    0    0  0.49182113425E+02  0.17688175406E+02  0.44408062336E+02  0.14265810853E+03  0.12509000000E+03 0.  0.
<mgrwt>
<rscale>  2 0.44362285E+03</rscale>
<asrwt>0</asrwt>
<pdfrwt beam="1">  1       21 0.28347564E-01 0.44362285E+03</pdfrwt>
<pdfrwt beam="2">  1       21 0.37534814E-01 0.44362285E+03</pdfrwt>
<totfact> 0.75702931E+04</totfact>
</mgrwt>
</event>
<event>
 7    0  0.4709932E-002  0.4636952E+03  0.7546771E-02  0.1023715E+00
         21   -1    0    0  502  501  0.00000000000E+00  0.00000000000E+00  0.82278993597E+03  0.82278993597E+03  0.00000000000E+00 0.  1.
         21   -1    0    0  501  502 -0.00000000000E+00 -0.00000000000E+00 -0.65330552070E+02  0.65330552070E+02  0.00000000000E+00 0.  1.
      99926    2    1    2    0    0  0.88817841970E-15  0.14210854715E-13  0.75745938390E+03  0.88812048804E+03  0.46369524800E+03 0.  0.
      99925    2    3    3    0    0  0.13664839429E+01  0.10370799441E+03  0.59318191967E+03  0.65705381208E+03  0.26286442660E+03 0.  0.
         25    1    4    4    0    0 -0.31082984323E+02  0.66705571081E+02  0.35566143894E+03  0.38413324821E+03  0.12509000000E+03 0.  0.
         25    1    3    3    0    0 -0.13664839429E+01 -0.10370799441E+03  0.16427746423E+03  0.23106667596E+03  0.12509000000E+03 0.  0.
         25    1    4    4    0    0  0.32449468266E+02  0.37002423329E+02  0.23752048073E+03  0.27292056388E+03  0.12509000000E+03 0.  0.
<mgrwt>
<rscale>  2 0.46369525E+03</rscale>
<asrwt>0</asrwt>
<pdfrwt beam="1">  1       21 0.12099851E+00 0.46369525E+03</pdfrwt>
<pdfrwt beam="2">  1       21 0.96074346E-02 0.46369525E+03</pdfrwt>
<totfact> 0.40894776E+04</totfact>
</mgrwt>
</event>
<event>
 7    0  0.4709932E-002  0.4686080E+03  0.7546771E-02  0.1022314E+00
         21   -1    0    0  502  501  0.00000000000E+00  0.00000000000E+00  0.19723719049E+03  0.19723719049E+03  0.00000000000E+00 0. -1.
         21   -1    0    0  501  502 -0.00000000000E+00 -0.00000000000E+00 -0.27833676580E+03  0.27833676580E+03  0.00000000000E+00 0. -1.
      99926    2    1    2    0    0  0.00000000000E+00  0.00000000000E+00 -0.81099575308E+02  0.47557395629E+03  0.46860798840E+03 0.  0.
      99925    2    3    3    0    0 -0.40808904106E+02 -0.36205077958E+02 -0.16501995028E+03  0.31536686607E+03  0.26315110089E+03 0.  0.
         25    1    3    3    0    0  0.40808904106E+02  0.36205077958E+02  0.83920374967E+02  0.16020709023E+03  0.12509000000E+03 0.  0.
         25    1    4    4    0    0 -0.10338452399E+02  0.15188093738E+02 -0.10482494714E+03  0.16423562169E+03  0.12509000000E+03 0.  0.
         25    1    4    4    0    0 -0.30470451707E+02 -0.51393171695E+02 -0.60195003134E+02  0.15113124438E+03  0.12509000000E+03 0.  0.
<mgrwt>
<rscale>  2 0.46860799E+03</rscale>
<asrwt>0</asrwt>
<pdfrwt beam="1">  1       21 0.29005469E-01 0.46860799E+03</pdfrwt>
<pdfrwt beam="2">  1       21 0.40931877E-01 0.46860799E+03</pdfrwt>
<totfact> 0.60246660E+04</totfact>
</mgrwt>
</event>
<event>
 7    0  0.4709932E-002  0.4580777E+03  0.7546771E-02  0.1025340E+00
         21   -1    0    0  502  501  0.00000000000E+00  0.00000000000E+00  0.26408264819E+03  0.26408264819E+03  0.00000000000E+00 0.  1.
         21   -1    0    0  501  502 -0.00000000000E+00 -0.00000000000E+00 -0.19864539241E+03  0.19864539241E+03  0.00000000000E+00 0.  1.
      99926    2    1    2    0    0  0.00000000000E+00  0.00000000000E+00  0.65437255781E+02  0.46272804060E+03  0.45807772824E+03 0.  0.
      99925    2    3    3    0    0 -0.12174437694E+02 -0.59248261349E+02 -0.58901513245E+02  0.27627104559E+03  0.26305461213E+03 0.  0.
         25    1    3    3    0    0  0.12174437694E+02  0.59248261349E+02  0.12433876903E+03  0.18645699501E+03  0.12509000000E+03 0.  0.
         25    1    4    4    0    0 -0.21935825896E+02 -0.67899595484E+02 -0.35883284094E+02  0.14841379216E+03  0.12509000000E+03 0.  0.
         25    1    4    4    0    0  0.97613882019E+01  0.86513341353E+01 -0.23018229151E+02  0.12785725343E+03  0.12509000000E+03 0.  0.
<mgrwt>
<rscale>  2 0.45807773E+03</rscale>
<asrwt>0</asrwt>
<pdfrwt beam="1">  1       21 0.38835684E-01 0.45807773E+03</pdfrwt>
<pdfrwt beam="2">  1       21 0.29212557E-01 0.45807773E+03</pdfrwt>
<totfact> 0.66338978E+04</totfact>
</mgrwt>
</event>
<event>
 7    0  0.4709932E-002  0.4253953E+03  0.7546771E-02  0.1035325E+00
         21   -1    0    0  502  501  0.00000000000E+00  0.00000000000E+00  0.23674163262E+03  0.23674163262E+03  0.00000000000E+00 0.  1.
         21   -1    0    0  501  502 -0.00000000000E+00 -0.00000000000E+00 -0.19109561291E+03  0.19109561291E+03  0.00000000000E+00 0.  1.
      99926    2    1    2    0    0  0.00000000000E+00  0.00000000000E+00  0.45646019704E+02  0.42783724553E+03  0.42539528623E+03 0.  0.
      99925    2    3    3    0    0  0.38970872590E+02 -0.72487399592E+02  0.32634905098E+02  0.27753771389E+03  0.26303800788E+03 0.  0.
         25    1    3    3    0    0 -0.38970872590E+02  0.72487399592E+02  0.13011114606E+02  0.15029953165E+03  0.12509000000E+03 0.  0.
         25    1    4    4    0    0  0.42368392060E+02 -0.43377893002E+01  0.40195864605E+01  0.13220273158E+03  0.12509000000E+03 0.  0.
         25    1    4    4    0    0 -0.33975194693E+01 -0.68149610292E+02  0.28615318637E+02  0.14533498231E+03  0.12509000000E+03 0.  0.
<mgrwt>
<rscale>  2 0.42539529E+03</rscale>
<asrwt>0</asrwt>
<pdfrwt beam="1">  1       21 0.34814946E-01 0.42539529E+03</pdfrwt>
<pdfrwt beam="2">  1       21 0.28102296E-01 0.42539529E+03</pdfrwt>
<totfact> 0.90045455E+04</totfact>
</mgrwt>
</event>
<event>
 7    0  0.4709932E-002  0.4552663E+03  0.7546771E-02  0.1026163E+00
         21   -1    0    0  502  501  0.00000000000E+00  0.00000000000E+00  0.23658823813E+03  0.23658823813E+03  0.00000000000E+00 0. -1.
         21   -1    0    0  501  502 -0.00000000000E+00 -0.00000000000E+00 -0.21901701625E+03  0.21901701625E+03  0.00000000000E+00 0. -1.
      99926    2    1    2    0    0  0.00000000000E+00  0.00000000000E+00  0.17571221875E+02  0.45560525438E+03  0.45526629568E+03 0.  0.
      99925    2    3    3    0    0  0.68682454299E+02 -0.88968904197E+02  0.25967693731E+02  0.28722843210E+03  0.26304582423E+03 0.  0.
         25    1    4    4    0    0  0.12114734850E+02 -0.69505311368E+02  0.36467623899E+02  0.14817270599E+03  0.12509000000E+03 0.  0.
         25    1    4    4    0    0  0.56567719449E+02 -0.19463592829E+02 -0.10499930167E+02  0.13905572611E+03  0.12509000000E+03 0.  0.
         25    1    3    3    0    0 -0.68682454299E+02  0.88968904197E+02 -0.83964718569E+01  0.16837682228E+03  0.12509000000E+03 0.  0.
<mgrwt>
<rscale>  2 0.45526630E+03</rscale>
<asrwt>0</asrwt>
<pdfrwt beam="1">  1       21 0.34792388E-01 0.45526630E+03</pdfrwt>
<pdfrwt beam="2">  1       21 0.32208384E-01 0.45526630E+03</pdfrwt>
<totfact> 0.68356137E+04</totfact>
</mgrwt>
</event>
<event>
 7    0  0.4709932E-002  0.4477551E+03  0.7546771E-02  0.1028394E+00
         21   -1    0    0  502  501  0.00000000000E+00  0.00000000000E+00  0.10150061685E+03  0.10150061685E+03  0.00000000000E+00 0.  1.
         21   -1    0    0  501  502 -0.00000000000E+00 -0.00000000000E+00 -0.49380143141E+03  0.49380143141E+03  0.00000000000E+00 0.  1.
      99926    2    1    2    0    0  0.17763568394E-14  0.17763568394E-14 -0.39230081456E+03  0.59530204826E+03  0.44775506648E+03 0.  0.
      99925    2    3    3    0    0 -0.15657123948E+02  0.15980075466E+02 -0.38657651726E+03  0.46809833753E+03  0.26300977465E+03 0.  0.
         25    1    4    4    0    0 -0.31712881282E+02 -0.24796717791E+02 -0.19075698133E+03  0.23163833465E+03  0.12509000000E+03 0.  0.
         25    1    3    3    0    0  0.15657123948E+02 -0.15980075466E+02 -0.57242972926E+01  0.12720371072E+03  0.12509000000E+03 0.  0.
         25    1    4    4    0    0  0.16055757334E+02  0.40776793257E+02 -0.19581953593E+03  0.23646000289E+03  0.12509000000E+03 0.  0.
<mgrwt>
<rscale>  2 0.44775507E+03</rscale>
<asrwt>0</asrwt>
<pdfrwt beam="1">  1       21 0.14926562E-01 0.44775507E+03</pdfrwt>
<pdfrwt beam="2">  1       21 0.72617856E-01 0.44775507E+03</pdfrwt>
<totfact> 0.62468621E+04</totfact>
</mgrwt>
</event>
<event>
 7    0  0.4709932E-002  0.4520525E+03  0.7546771E-02  0.1027112E+00
         21   -1    0    0  502  501  0.00000000000E+00  0.00000000000E+00  0.10809500450E+04  0.10809500450E+04  0.00000000000E+00 0. -1.
         21   -1    0    0  501  502 -0.00000000000E+00 -0.00000000000E+00 -0.47261996105E+02  0.47261996105E+02  0.00000000000E+00 0. -1.
      99926    2    1    2    0    0  0.14210854715E-13 -0.71054273576E-14  0.10336880489E+04  0.11282120411E+04  0.45205246074E+03 0.  0.
      99925    2    3    3    0    0 -0.96296457883E+02  0.36592097871E+02  0.75050647219E+03  0.80194328239E+03  0.26313698703E+03 0.  0.
         25    1    3    3    0    0  0.96296457883E+02 -0.36592097871E+02  0.28318157668E+03  0.32626875869E+03  0.12509000000E+03 0.  0.
         25    1    4    4    0    0 -0.49128252789E+02 -0.10324844703E+02  0.28336340254E+03  0.31378737011E+03  0.12509000000E+03 0.  0.
         25    1    4    4    0    0 -0.47168205094E+02  0.46916942574E+02  0.46714306965E+03  0.48815591228E+03  0.12509000000E+03 0.  0.
<mgrwt>
<rscale>  2 0.45205246E+03</rscale>
<asrwt>0</asrwt>
<pdfrwt beam="1">  1       21 0.15896323E+00 0.45205246E+03</pdfrwt>
<pdfrwt beam="2">  1       21 0.69502943E-02 0.45205246E+03</pdfrwt>
<totfact> 0.35322882E+04</totfact>
</mgrwt>
</event>
<event>
 7    0  0.4709932E-002  0.4555684E+03  0.7546771E-02  0.1026074E+00
         21   -1    0    0  502  501  0.00000000000E+00  0.00000000000E+00  0.71935502668E+03  0.71935502668E+03  0.00000000000E+00 0. -1.
         21   -1    0    0  501  502 -0.00000000000E+00 -0.00000000000E+00 -0.72128014357E+02  0.72128014357E+02  0.00000000000E+00 0. -1.
      99926    2    1    2    0    0  0.00000000000E+00 -0.14210854715E-13  0.64722701232E+03  0.79148304103E+03  0.45556843478E+03 0.  0.
      99925    2    3    3    0    0 -0.63054112186E+02  0.77386327214E+02  0.31291291837E+03  0.42083781145E+03  0.26310740080E+03 0.  0.
         25    1    4    4    0    0 -0.68799288607E+02  0.24763492560E+02  0.14682694473E+03  0.20628192474E+03  0.12509000000E+03 0.  0.
         25    1    4    4    0    0  0.57451764201E+01  0.52622834654E+02  0.16608597364E+03  0.21455588670E+03  0.12509000000E+03 0.  0.
         25    1    3    3    0    0  0.63054112186E+02 -0.77386327214E+02  0.33431409395E+03  0.37064522959E+03  0.12509000000E+03 0.  0.
<mgrwt>
<rscale>  2 0.45556843E+03</rscale>
<asrwt>0</asrwt>
<pdfrwt beam="1">  1       21 0.10578750E+00 0.45556843E+03</pdfrwt>
<pdfrwt beam="2">  1       21 0.10607061E-01 0.45556843E+03</pdfrwt>
<totfact> 0.47965196E+04</totfact>
</mgrwt>
</event>
<event>
 7    0  0.4709932E-002  0.4389547E+03  0.7546771E-02  0.1031068E+00
         21   -1    0    0  502  501  0.00000000000E+00  0.00000000000E+00  0.48191052763E+03  0.48191052763E+03  0.00000000000E+00 0. -1.
         21   -1    0    0  501  502 -0.00000000000E+00 -0.00000000000E+00 -0.99956937248E+02  0.99956937248E+02  0.00000000000E+00 0. -1.
      99926    2    1    2    0    0  0.00000000000E+00  0.00000000000E+00  0.38195359038E+03  0.58186746488E+03  0.43895466905E+03 0.  0.
      99925    2    3    3    0    0  0.29300652816E+02  0.58794972063E+02  0.33899881036E+03  0.43419215136E+03  0.26322472126E+03 0.  0.
         25    1    4    4    0    0 -0.58571229672E+01  0.16398422296E+02  0.10988865428E+03  0.16741038971E+03  0.12509000000E+03 0.  0.
         25    1    4    4    0    0  0.35157775783E+02  0.42396549767E+02  0.22911015609E+03  0.26678176166E+03  0.12509000000E+03 0.  0.
         25    1    3    3    0    0 -0.29300652816E+02 -0.58794972063E+02  0.42954780018E+02  0.14767531351E+03  0.12509000000E+03 0.  0.
<mgrwt>
<rscale>  2 0.43895467E+03</rscale>
<asrwt>0</asrwt>
<pdfrwt beam="1">  1       21 0.70869194E-01 0.43895467E+03</pdfrwt>
<pdfrwt beam="2">  1       21 0.14699550E-01 0.43895467E+03</pdfrwt>
<totfact> 0.68035945E+04</totfact>
</mgrwt>
</event>
<event>
 7    0  0.4709932E-002  0.4521579E+03  0.7546771E-02  0.1027080E+00
         21   -1    0    0  502  501  0.00000000000E+00  0.00000000000E+00  0.37912405570E+02  0.37912405570E+02  0.00000000000E+00 0.  1.
         21   -1    0    0  501  502 -0.00000000000E+00 -0.00000000000E+00 -0.13481521164E+04  0.13481521164E+04  0.00000000000E+00 0.  1.
      99926    2    1    2    0    0  0.00000000000E+00  0.00000000000E+00 -0.13102397109E+04  0.13860645220E+04  0.45215789193E+03 0.  0.
      99925    2    3    3    0    0  0.64464683378E+02  0.88749237975E+02 -0.86641156288E+03  0.91207817654E+03  0.26303133118E+03 0.  0.
         25    1    3    3    0    0 -0.64464683378E+02 -0.88749237975E+02 -0.44382814799E+03  0.47398634547E+03  0.12509000000E+03 0.  0.
         25    1    4    4    0    0  0.60186508536E+02  0.76424190691E+02 -0.51573449752E+03  0.53953002953E+03  0.12509000000E+03 0.  0.
         25    1    4    4    0    0  0.42781748423E+01  0.12325047284E+02 -0.35067706536E+03  0.37254814701E+03  0.12509000000E+03 0.  0.
<mgrwt>
<rscale>  2 0.45215789E+03</rscale>
<asrwt>0</asrwt>
<pdfrwt beam="1">  1       21 0.55753539E-02 0.45215789E+03</pdfrwt>
<pdfrwt beam="2">  1       21 0.19825766E+00 0.45215789E+03</pdfrwt>
<totfact> 0.27303866E+04</totfact>
</mgrwt>
</event>
<event>
 7    0  0.4709932E-002  0.4539838E+03  0.7546771E-02  0.1026541E+00
         21   -1    0    0  502  501  0.00000000000E+00  0.00000000000E+00  0.81951697132E+03  0.81951697132E+03  0.00000000000E+00 0. -1.
         21   -1    0    0  501  502 -0.00000000000E+00 -0.00000000000E+00 -0.62872795021E+02  0.62872795021E+02  0.00000000000E+00 0. -1.
      99926    2    1    2    0    0  0.71054273576E-14 -0.11102230246E-14  0.75664417630E+03  0.88238976634E+03  0.45398379951E+03 0.  0.
      99925    2    3    3    0    0 -0.52170905999E+02  0.15506076473E+01  0.66970797704E+03  0.72136300255E+03  0.26292888604E+03 0.  0.
         25    1    4    4    0    0  0.78895043082E+01  0.21783862180E+02  0.29428902795E+03  0.32060929650E+03  0.12509000000E+03 0.  0.
         25    1    3    3    0    0  0.52170905999E+02 -0.15506076473E+01  0.86936199261E+02  0.16102676380E+03  0.12509000000E+03 0.  0.
         25    1    4    4    0    0 -0.60060410307E+02 -0.20233254533E+02  0.37541894909E+03  0.40075370605E+03  0.12509000000E+03 0.  0.
<mgrwt>
<rscale>  2 0.45398380E+03</rscale>
<asrwt>0</asrwt>
<pdfrwt beam="1">  1       21 0.12051720E+00 0.45398380E+03</pdfrwt>
<pdfrwt beam="2">  1       21 0.92459997E-02 0.45398380E+03</pdfrwt>
<totfact> 0.44355830E+04</totfact>
</mgrwt>
</event>
<event>
 7    0  0.4709932E-002  0.4600345E+03  0.7546771E-02  0.1024771E+00
         21   -1    0    0  502  501  0.00000000000E+00  0.00000000000E+00  0.52550405804E+03  0.52550405804E+03  0.00000000000E+00 0.  1.
         21   -1    0    0  501  502 -0.00000000000E+00 -0.00000000000E+00 -0.10068037048E+03  0.10068037048E+03  0.00000000000E+00 0.  1.
      99926    2    1    2    0    0  0.00000000000E+00  0.00000000000E+00  0.42482368756E+03  0.62618442853E+03  0.46003453460E+03 0.  0.
      99925    2    3    3    0    0 -0.12885302219E+02 -0.11606748435E+03  0.28639519287E+03  0.40607616386E+03  0.26313105559E+03 0.  0.
         25    1    4    4    0    0 -0.91336491791E+01 -0.58447530114E+02  0.86105167928E+02  0.16297590425E+03  0.12509000000E+03 0.  0.
         25    1    3    3    0    0  0.12885302219E+02  0.11606748435E+03  0.13842849469E+03  0.22010826467E+03  0.12509000000E+03 0.  0.
         25    1    4    4    0    0 -0.37516530397E+01 -0.57619954231E+02  0.20029002494E+03  0.24310025960E+03  0.12509000000E+03 0.  0.
<mgrwt>
<rscale>  2 0.46003453E+03</rscale>
<asrwt>0</asrwt>
<pdfrwt beam="1">  1       21 0.77280007E-01 0.46003453E+03</pdfrwt>
<pdfrwt beam="2">  1       21 0.14805937E-01 0.46003453E+03</pdfrwt>
<totfact> 0.54880610E+04</totfact>
</mgrwt>
</event>
<event>
 7    0  0.4709932E-002  0.4542099E+03  0.7546771E-02  0.1026474E+00
         21   -1    0    0  502  501  0.00000000000E+00  0.00000000000E+00  0.96628364700E+02  0.96628364700E+02  0.00000000000E+00 0. -1.
         21   -1    0    0  501  502 -0.00000000000E+00 -0.00000000000E+00 -0.53376315541E+03  0.53376315541E+03  0.00000000000E+00 0. -1.
      99926    2    1    2    0    0  0.00000000000E+00  0.00000000000E+00 -0.43713479071E+03  0.63039152011E+03  0.45420991114E+03 0.  0.
      99925    2    3    3    0    0  0.86695375253E+01 -0.20683719512E+02 -0.42819175032E+03  0.50299268493E+03  0.26296480546E+03 0.  0.
         25    1    4    4    0    0  0.29244431791E+02  0.20809940378E+02 -0.22518231744E+03  0.26008243808E+03  0.12509000000E+03 0.  0.
         25    1    4    4    0    0 -0.20574894266E+02 -0.41493659891E+02 -0.20300943288E+03  0.24291024685E+03  0.12509000000E+03 0.  0.
         25    1    3    3    0    0 -0.86695375253E+01  0.20683719512E+02 -0.89430403860E+01  0.12739883518E+03  0.12509000000E+03 0.  0.
<mgrwt>
<rscale>  2 0.45420991E+03</rscale>
<asrwt>0</asrwt>
<pdfrwt beam="1">  1       21 0.14210054E-01 0.45420991E+03</pdfrwt>
<pdfrwt beam="2">  1       21 0.78494581E-01 0.45420991E+03</pdfrwt>
<totfact> 0.57201446E+04</totfact>
</mgrwt>
</event>
<event>
 7    0  0.4709932E-002  0.4570158E+03  0.7546771E-02  0.1025650E+00
         21   -1    0    0  502  501  0.00000000000E+00  0.00000000000E+00  0.11279638575E+04  0.11279638575E+04  0.00000000000E+00 0.  1.
         21   -1    0    0  501  502 -0.00000000000E+00 -0.00000000000E+00 -0.46292137941E+02  0.46292137941E+02  0.00000000000E+00 0.  1.
      99926    2    1    2    0    0  0.00000000000E+00  0.00000000000E+00  0.10816717195E+04  0.11742559954E+04  0.45701579177E+03 0.  0.
      99925    2    3    3    0    0 -0.98660087205E+02 -0.47848102022E+02  0.76720068951E+03  0.81849935036E+03  0.26328888105E+03 0.  0.
         25    1    4    4    0    0 -0.29114053742E+02 -0.27411351569E+02  0.26277193720E+03  0.29376114345E+03  0.12509000000E+03 0.  0.
         25    1    3    3    0    0  0.98660087205E+02  0.47848102022E+02  0.31447103002E+03  0.35575664505E+03  0.12509000000E+03 0.  0.
         25    1    4    4    0    0 -0.69546033463E+02 -0.20436750454E+02  0.50442875231E+03  0.52473820691E+03  0.12509000000E+03 0.  0.
<mgrwt>
<rscale>  2 0.45701579E+03</rscale>
<asrwt>0</asrwt>
<pdfrwt beam="1">  1       21 0.16587702E+00 0.45701579E+03</pdfrwt>
<pdfrwt beam="2">  1       21 0.68076681E-02 0.45701579E+03</pdfrwt>
<totfact> 0.32469756E+04</totfact>
</mgrwt>
</event>
<event>
 7    0  0.4709932E-002  0.4307496E+03  0.7546771E-02  0.1033623E+00
         21   -1    0    0  502  501  0.00000000000E+00  0.00000000000E+00  0.10311535876E+03  0.10311535876E+03  0.00000000000E+00 0.  1.
         21   -1    0    0  501  502 -0.00000000000E+00 -0.00000000000E+00 -0.44984865578E+03  0.44984865578E+03  0.00000000000E+00 0.  1.
      99926    2    1    2    0    0  0.00000000000E+00  0.00000000000E+00 -0.34673329702E+03  0.55296401453E+03  0.43074960488E+03 0.  0.
      99925    2    3    3    0    0  0.72272795713E+02 -0.45616213787E+02 -0.19368575789E+03  0.33761487176E+03  0.26299321828E+03 0.  0.
         25    1    3    3    0    0 -0.72272795713E+02  0.45616213787E+02 -0.15304753913E+03  0.21534914277E+03  0.12509000000E+03 0.  0.
         25    1    4    4    0    0  0.41199576334E+02 -0.36306250201E+02 -0.52861304812E+02  0.14648335926E+03  0.12509000000E+03 0.  0.
         25    1    4    4    0    0  0.31073219379E+02 -0.93099635856E+01 -0.14082445308E+03  0.19113151250E+03  0.12509000000E+03 0.  0.
<mgrwt>
<rscale>  2 0.43074960E+03</rscale>
<asrwt>0</asrwt>
<pdfrwt beam="1">  1       21 0.15164023E-01 0.43074960E+03</pdfrwt>
<pdfrwt beam="2">  1       21 0.66154216E-01 0.43074960E+03</pdfrwt>
<totfact> 0.75069240E+04</totfact>
</mgrwt>
</event>
<event>
 7    0  0.4709932E-002  0.4326898E+03  0.7546771E-02  0.1033014E+00
         21   -1    0    0  502  501  0.00000000000E+00  0.00000000000E+00  0.93744735391E+03  0.93744735391E+03  0.00000000000E+00 0. -1.
         21   -1    0    0  501  502 -0.00000000000E+00 -0.00000000000E+00 -0.49928256797E+02  0.49928256797E+02  0.00000000000E+00 0. -1.
      99926    2    1    2    0    0 -0.14210854715E-13  0.00000000000E+00  0.88751909711E+03  0.98737561071E+03  0.43268978365E+03 0.  0.
      99925    2    3    3    0    0 -0.80551039284E+02 -0.26804834105E+02  0.64327784991E+03  0.70013309297E+03  0.26300757902E+03 0.  0.
         25    1    3    3    0    0  0.80551039284E+02  0.26804834105E+02  0.24424124720E+03  0.28724251774E+03  0.12509000000E+03 0.  0.
         25    1    4    4    0    0 -0.77203820627E+02  0.43785417419E+01  0.32520403680E+03  0.35691003796E+03  0.12509000000E+03 0.  0.
         25    1    4    4    0    0 -0.33472186569E+01 -0.31183375847E+02  0.31807381311E+03  0.34322305501E+03  0.12509000000E+03 0.  0.
<mgrwt>
<rscale>  2 0.43268978E+03</rscale>
<asrwt>0</asrwt>
<pdfrwt beam="1">  1       21 0.13785989E+00 0.43268978E+03</pdfrwt>
<pdfrwt beam="2">  1       21 0.73423913E-02 0.43268978E+03</pdfrwt>
<totfact> 0.47398000E+04</totfact>
</mgrwt>
</event>
<event>
 7    0  0.4709932E-002  0.4562626E+03  0.7546771E-02  0.1025871E+00
         21   -1    0    0  502  501  0.00000000000E+00  0.00000000000E+00  0.72566006104E+02  0.72566006104E+02  0.00000000000E+00 0.  1.
         21   -1    0    0  501  502 -0.00000000000E+00 -0.00000000000E+00 -0.71719393891E+03  0.71719393891E+03  0.00000000000E+00 0.  1.
      99926    2    1    2    0    0 -0.14210854715E-13  0.00000000000E+00 -0.64462793280E+03  0.78975994501E+03  0.45626264256E+03 0.  0.
      99925    2    3    3    0    0  0.86075257125E+02  0.65790389649E+02 -0.46960770755E+03  0.54889294311E+03  0.26270656395E+03 0.  0.
         25    1    4    4    0    0  0.64440088334E+02  0.69977910764E+02 -0.25935254644E+03  0.30325020103E+03  0.12509000000E+03 0.  0.
         25    1    4    4    0    0  0.21635168791E+02 -0.41875211149E+01 -0.21025516111E+03  0.24564274208E+03  0.12509000000E+03 0.  0.
         25    1    3    3    0    0 -0.86075257125E+02 -0.65790389649E+02 -0.17502022525E+03  0.24086700190E+03  0.12509000000E+03 0.  0.
<mgrwt>
<rscale>  2 0.45626264E+03</rscale>
<asrwt>0</asrwt>
<pdfrwt beam="1">  1       21 0.10671471E-01 0.45626264E+03</pdfrwt>
<pdfrwt beam="2">  1       21 0.10546970E+00 0.45626264E+03</pdfrwt>
<totfact> 0.47788778E+04</totfact>
</mgrwt>
</event>
<event>
 7    0  0.4709932E-002  0.4410783E+03  0.7546771E-02  0.1030416E+00
         21   -1    0    0  502  501  0.00000000000E+00  0.00000000000E+00  0.62334240642E+03  0.62334240642E+03  0.00000000000E+00 0.  1.
         21   -1    0    0  501  502 -0.00000000000E+00 -0.00000000000E+00 -0.78026968320E+02  0.78026968320E+02  0.00000000000E+00 0.  1.
      99926    2    1    2    0    0  0.00000000000E+00  0.00000000000E+00  0.54531543810E+03  0.70136937474E+03  0.44107830687E+03 0.  0.
      99925    2    3    3    0    0  0.34215228266E+02  0.90516641333E+02  0.38441666062E+03  0.47575938184E+03  0.26307199821E+03 0.  0.
         25    1    4    4    0    0  0.32210648959E+02  0.24683250543E+02  0.23998632102E+03  0.27365622803E+03  0.12509000000E+03 0.  0.
         25    1    3    3    0    0 -0.34215228266E+02 -0.90516641333E+02  0.16089877748E+03  0.22560999291E+03  0.12509000000E+03 0.  0.
         25    1    4    4    0    0  0.20045793072E+01  0.65833390790E+02  0.14443033960E+03  0.20210315381E+03  0.12509000000E+03 0.  0.
<mgrwt>
<rscale>  2 0.44107831E+03</rscale>
<asrwt>0</asrwt>
<pdfrwt beam="1">  1       21 0.91667998E-01 0.44107831E+03</pdfrwt>
<pdfrwt beam="2">  1       21 0.11474554E-01 0.44107831E+03</pdfrwt>
<totfact> 0.59035239E+04</totfact>
</mgrwt>
</event>
<event>
 7    0  0.4709932E-002  0.4528787E+03  0.7546771E-02  0.1026867E+00
         21   -1    0    0  502  501  0.00000000000E+00  0.00000000000E+00  0.54676143559E+03  0.54676143559E+03  0.00000000000E+00 0. -1.
         21   -1    0    0  501  502 -0.00000000000E+00 -0.00000000000E+00 -0.93779051517E+02  0.93779051517E+02  0.00000000000E+00 0. -1.
      99926    2    1    2    0    0  0.35527136788E-14 -0.71054273576E-14  0.45298238408E+03  0.64054048711E+03  0.45287865411E+03 0.  0.
      99925    2    3    3    0    0 -0.20819738245E+02 -0.59065260760E+02  0.15584826338E+03  0.31212252123E+03  0.26307721401E+03 0.  0.
         25    1    4    4    0    0 -0.43617450330E+02 -0.18614562615E+02  0.54006953287E+02  0.14426795562E+03  0.12509000000E+03 0.  0.
         25    1    3    3    0    0  0.20819738245E+02  0.59065260760E+02  0.29713412070E+03  0.32841796588E+03  0.12509000000E+03 0.  0.
         25    1    4    4    0    0  0.22797712085E+02 -0.40450698145E+02  0.10184131009E+03  0.16785456562E+03  0.12509000000E+03 0.  0.
<mgrwt>
<rscale>  2 0.45287865E+03</rscale>
<asrwt>0</asrwt>
<pdfrwt beam="1">  1       21 0.80406092E-01 0.45287865E+03</pdfrwt>
<pdfrwt beam="2">  1       21 0.13791037E-01 0.45287865E+03</pdfrwt>
<totfact> 0.57201325E+04</totfact>
</mgrwt>
</event>
<event>
 7    0  0.4709932E-002  0.4545642E+03  0.7546771E-02  0.1026370E+00
         21   -1    0    0  502  501  0.00000000000E+00  0.00000000000E+00  0.13711305912E+04  0.13711305912E+04  0.00000000000E+00 0. -1.
         21   -1    0    0  501  502 -0.00000000000E+00 -0.00000000000E+00 -0.37674863424E+02  0.37674863424E+02  0.00000000000E+00 0. -1.
      99926    2    1    2    0    0  0.35527136788E-14  0.71054273576E-14  0.13334557277E+04  0.14088054546E+04  0.45456422102E+03 0.  0.
      99925    2    3    3    0    0 -0.26416081134E+02 -0.47018376418E+02  0.53327751986E+03  0.59711511368E+03  0.26315966395E+03 0.  0.
         25    1    4    4    0    0 -0.32101459760E+02 -0.55443689934E+02  0.32267657988E+03  0.35195481212E+03  0.12509000000E+03 0.  0.
         25    1    4    4    0    0  0.56853786257E+01  0.84253135165E+01  0.21060093998E+03  0.24516030156E+03  0.12509000000E+03 0.  0.
         25    1    3    3    0    0  0.26416081134E+02  0.47018376418E+02  0.80017820787E+03  0.81169034090E+03  0.12509000000E+03 0.  0.
<mgrwt>
<rscale>  2 0.45456422E+03</rscale>
<asrwt>0</asrwt>
<pdfrwt beam="1">  1       21 0.20163682E+00 0.45456422E+03</pdfrwt>
<pdfrwt beam="2">  1       21 0.55404220E-02 0.45456422E+03</pdfrwt>
<totfact> 0.26186868E+04</totfact>
</mgrwt>
</event>
<event>
 7    0  0.4709932E-002  0.4545378E+03  0.7546771E-02  0.1026377E+00
         21   -1    0    0  502  501  0.00000000000E+00  0.00000000000E+00  0.18604881432E+03  0.18604881432E+03  0.00000000000E+00 0. -1.
         21   -1    0    0  501  502 -0.00000000000E+00 -0.00000000000E+00 -0.27762146185E+03  0.27762146185E+03  0.00000000000E+00 0. -1.
      99926    2    1    2    0    0  0.71054273576E-14  0.00000000000E+00 -0.91572647533E+02  0.46367027617E+03  0.45453775996E+03 0.  0.
      99925    2    3    3    0    0 -0.50329628424E+02 -0.65621007210E+02 -0.13564715703E+03  0.30737165631E+03  0.26313113804E+03 0.  0.
         25    1    4    4    0    0 -0.20155546730E+02 -0.11209899730E+02 -0.10356191137E+03  0.16402586839E+03  0.12509000000E+03 0.  0.
         25    1    3    3    0    0  0.50329628424E+02  0.65621007210E+02  0.44074509498E+02  0.15629861987E+03  0.12509000000E+03 0.  0.
         25    1    4    4    0    0 -0.30174081694E+02 -0.54411107480E+02 -0.32085245663E+02  0.14334578791E+03  0.12509000000E+03 0.  0.
<mgrwt>
<rscale>  2 0.45453776E+03</rscale>
<asrwt>0</asrwt>
<pdfrwt beam="1">  1       21 0.27360120E-01 0.45453776E+03</pdfrwt>
<pdfrwt beam="2">  1       21 0.40826685E-01 0.45453776E+03</pdfrwt>
<totfact> 0.68159169E+04</totfact>
</mgrwt>
</event>
<event>
 7    0  0.4709932E-002  0.4532040E+03  0.7546771E-02  0.1026771E+00
         21   -1    0    0  502  501  0.00000000000E+00  0.00000000000E+00  0.49788986896E+03  0.49788986896E+03  0.00000000000E+00 0. -1.
         21   -1    0    0  501  502 -0.00000000000E+00 -0.00000000000E+00 -0.10313215662E+03  0.10313215662E+03  0.00000000000E+00 0. -1.
      99926    2    1    2    0    0  0.00000000000E+00  0.00000000000E+00  0.39475771233E+03  0.60102202558E+03  0.45320395385E+03 0.  0.
      99925    2    3    3    0    0  0.84870320778E+02  0.64248518626E+02  0.29294205213E+03  0.40777404951E+03  0.26293304480E+03 0.  0.
         25    1    4    4    0    0  0.37598643815E+02  0.57822572168E+02  0.10618664782E+03  0.17798938211E+03  0.12509000000E+03 0.  0.
         25    1    3    3    0    0 -0.84870320778E+02 -0.64248518626E+02  0.10181566020E+03  0.19324797607E+03  0.12509000000E+03 0.  0.
         25    1    4    4    0    0  0.47271676964E+02  0.64259464581E+01  0.18675540431E+03  0.22978466740E+03  0.12509000000E+03 0.  0.
<mgrwt>
<rscale>  2 0.45320395E+03</rscale>
<asrwt>0</asrwt>
<pdfrwt beam="1">  1       21 0.73219097E-01 0.45320395E+03</pdfrwt>
<pdfrwt beam="2">  1       21 0.15166494E-01 0.45320395E+03</pdfrwt>
<totfact> 0.59454612E+04</totfact>
</mgrwt>
</event>
<event>
 7    0  0.4709932E-002  0.4497087E+03  0.7546771E-02  0.1027809E+00
         21   -1    0    0  502  501  0.00000000000E+00  0.00000000000E+00  0.38499705992E+02  0.38499705992E+02  0.00000000000E+00 0.  1.
         21   -1    0    0  501  502 -0.00000000000E+00 -0.00000000000E+00 -0.13132430990E+04  0.13132430990E+04  0.00000000000E+00 0.  1.
      99926    2    1    2    0    0 -0.71054273576E-14  0.00000000000E+00 -0.12747433930E+04  0.13517428050E+04  0.44970867552E+03 0.  0.
      99925    2    3    3    0    0  0.37090646467E+02 -0.97439477524E+02 -0.89310298579E+03  0.93681259839E+03  0.26289681137E+03 0.  0.
         25    1    4    4    0    0  0.45997098067E+02 -0.40556060140E+02 -0.35467457853E+03  0.38105392243E+03  0.12509000000E+03 0.  0.
         25    1    3    3    0    0 -0.37090646467E+02  0.97439477524E+02 -0.38164040724E+03  0.41493020663E+03  0.12509000000E+03 0.  0.
         25    1    4    4    0    0 -0.89064516001E+01 -0.56883417384E+02 -0.53842840726E+03  0.55575867596E+03  0.12509000000E+03 0.  0.
<mgrwt>
<rscale>  2 0.44970868E+03</rscale>
<asrwt>0</asrwt>
<pdfrwt beam="1">  1       21 0.56617216E-02 0.44970868E+03</pdfrwt>
<pdfrwt beam="2">  1       21 0.19312398E+00 0.44970868E+03</pdfrwt>
<totfact> 0.28813857E+04</totfact>
</mgrwt>
</event>
<event>
 7    0  0.4709932E-002  0.4374594E+03  0.7546771E-02  0.1031529E+00
         21   -1    0    0  502  501  0.00000000000E+00  0.00000000000E+00  0.75530634652E+02  0.75530634652E+02  0.00000000000E+00 0. -1.
         21   -1    0    0  501  502 -0.00000000000E+00 -0.00000000000E+00 -0.63342089260E+03  0.63342089260E+03  0.00000000000E+00 0. -1.
      99926    2    1    2    0    0  0.00000000000E+00  0.14210854715E-13 -0.55789025795E+03  0.70895152725E+03  0.43745940164E+03 0.  0.
      99925    2    3    3    0    0  0.45924118250E+02 -0.78048163459E+02 -0.40763084090E+03  0.49348472942E+03  0.26298999080E+03 0.  0.
         25    1    4    4    0    0  0.40041218321E+02 -0.39185832755E+02 -0.27344191852E+03  0.30587059283E+03  0.12509000000E+03 0.  0.
         25    1    3    3    0    0 -0.45924118250E+02  0.78048163459E+02 -0.15025941705E+03  0.21546679784E+03  0.12509000000E+03 0.  0.
         25    1    4    4    0    0  0.58828999287E+01 -0.38862330704E+02 -0.13418892237E+03  0.18761413659E+03  0.12509000000E+03 0.  0.
<mgrwt>
<rscale>  2 0.43745940E+03</rscale>
<asrwt>0</asrwt>
<pdfrwt beam="1">  1       21 0.11107447E-01 0.43745940E+03</pdfrwt>
<pdfrwt beam="2">  1       21 0.93150129E-01 0.43745940E+03</pdfrwt>
<totfact> 0.60323408E+04</totfact>
</mgrwt>
</event>
<event>
 7    0  0.4709932E-002  0.4543109E+03  0.7546771E-02  0.1026444E+00
         21   -1    0    0  502  501  0.00000000000E+00  0.00000000000E+00  0.66595532343E+02  0.66595532343E+02  0.00000000000E+00 0. -1.
         21   -1    0    0  501  502 -0.00000000000E+00 -0.00000000000E+00 -0.77482059041E+03  0.77482059041E+03  0.00000000000E+00 0. -1.
      99926    2    1    2    0    0  0.35527136788E-14  0.00000000000E+00 -0.70822505806E+03  0.84141612275E+03  0.45431086136E+03 0.  0.
      99925    2    3    3    0    0  0.19210422666E+02  0.31627020212E+02 -0.64266555309E+03  0.69542000794E+03  0.26309820518E+03 0.  0.
         25    1    4    4    0    0 -0.16915265587E+02  0.21292391089E+01 -0.23967011083E+03  0.27088730128E+03  0.12509000000E+03 0.  0.
         25    1    4    4    0    0  0.36125688254E+02  0.29497781103E+02 -0.40299544226E+03  0.42453270666E+03  0.12509000000E+03 0.  0.
         25    1    3    3    0    0 -0.19210422666E+02 -0.31627020212E+02 -0.65559504969E+02  0.14599611481E+03  0.12509000000E+03 0.  0.
<mgrwt>
<rscale>  2 0.45431086E+03</rscale>
<asrwt>0</asrwt>
<pdfrwt beam="1">  1       21 0.97934615E-02 0.45431086E+03</pdfrwt>
<pdfrwt beam="2">  1       21 0.11394419E+00 0.45431086E+03</pdfrwt>
<totfact> 0.46074437E+04</totfact>
</mgrwt>
</event>
<event>
 7    0  0.4709932E-002  0.4518689E+03  0.7546771E-02  0.1027166E+00
         21   -1    0    0  502  501  0.00000000000E+00  0.00000000000E+00  0.41583963785E+03  0.41583963785E+03  0.00000000000E+00 0.  1.
         21   -1    0    0  501  502 -0.00000000000E+00 -0.00000000000E+00 -0.12275496415E+03  0.12275496415E+03  0.00000000000E+00 0.  1.
      99926    2    1    2    0    0  0.00000000000E+00  0.00000000000E+00  0.29308467370E+03  0.53859460199E+03  0.45186891831E+03 0.  0.
      99925    2    3    3    0    0  0.10251134716E+03  0.35073443129E+02  0.16148035068E+03  0.32715683657E+03  0.26309118068E+03 0.  0.
         25    1    3    3    0    0 -0.10251134716E+03 -0.35073443129E+02  0.13160432302E+03  0.21143776542E+03  0.12509000000E+03 0.  0.
         25    1    4    4    0    0  0.74568396887E+02  0.53248424438E+02  0.89548897340E+02  0.17905963709E+03  0.12509000000E+03 0.  0.
         25    1    4    4    0    0  0.27942950268E+02 -0.18174981308E+02  0.71931453344E+02  0.14809719949E+03  0.12509000000E+03 0.  0.
<mgrwt>
<rscale>  2 0.45186892E+03</rscale>
<asrwt>0</asrwt>
<pdfrwt beam="1">  1       21 0.61152888E-01 0.45186892E+03</pdfrwt>
<pdfrwt beam="2">  1       21 0.18052201E-01 0.45186892E+03</pdfrwt>
<totfact> 0.64202746E+04</totfact>
</mgrwt>
</event>
<event>
 7    0  0.4709932E-002  0.4552453E+03  0.7546771E-02  0.1026169E+00
         21   -1    0    0  502  501  0.00000000000E+00  0.00000000000E+00  0.26750259164E+03  0.26750259164E+03  0.00000000000E+00 0. -1.
         21   -1    0    0  501  502 -0.00000000000E+00 -0.00000000000E+00 -0.19368808614E+03  0.19368808614E+03  0.00000000000E+00 0. -1.
      99926    2    1    2    0    0 -0.53290705182E-14  0.00000000000E+00  0.73814505507E+02  0.46119067778E+03  0.45524527460E+03 0.  0.
      99925    2    3    3    0    0  0.12484825990E+02 -0.35475848041E+02  0.15481956225E+03  0.30749053467E+03  0.26299605583E+03 0.  0.
         25    1    4    4    0    0  0.35631877829E+02  0.82541098790E+01  0.64093724880E+02  0.14523523924E+03  0.12509000000E+03 0.  0.
         25    1    4    4    0    0 -0.23147051839E+02 -0.43729957920E+02  0.90725837370E+02  0.16225529543E+03  0.12509000000E+03 0.  0.
         25    1    3    3    0    0 -0.12484825990E+02  0.35475848041E+02 -0.81005056743E+02  0.15370014311E+03  0.12509000000E+03 0.  0.
<mgrwt>
<rscale>  2 0.45524527E+03</rscale>
<asrwt>0</asrwt>
<pdfrwt beam="1">  1       21 0.39338616E-01 0.45524527E+03</pdfrwt>
<pdfrwt beam="2">  1       21 0.28483542E-01 0.45524527E+03</pdfrwt>
<totfact> 0.67960806E+04</totfact>
</mgrwt>
</event>
<event>
 7    0  0.4709932E-002  0.4537896E+03  0.7546771E-02  0.1026598E+00
         21   -1    0    0  502  501  0.00000000000E+00  0.00000000000E+00  0.37080109911E+03  0.37080109911E+03  0.00000000000E+00 0.  1.
         21   -1    0    0  501  502 -0.00000000000E+00 -0.00000000000E+00 -0.13883793808E+03  0.13883793808E+03  0.00000000000E+00 0.  1.
      99926    2    1    2    0    0  0.00000000000E+00 -0.17763568394E-14  0.23196316104E+03  0.50963903719E+03  0.45378964306E+03 0.  0.
      99925    2    3    3    0    0  0.86649355296E+02  0.91417053646E+01  0.67601938522E+02  0.28546544125E+03  0.26330365456E+03 0.  0.
         25    1    4    4    0    0  0.95032798895E+01  0.29256913420E+02  0.36724913462E+02  0.13394964233E+03  0.12509000000E+03 0.  0.
         25    1    3    3    0    0 -0.86649355296E+02 -0.91417053646E+01  0.16436122252E+03  0.22417359594E+03  0.12509000000E+03 0.  0.
         25    1    4    4    0    0  0.77146075406E+02 -0.20115208055E+02  0.30877025059E+02  0.15151579892E+03  0.12509000000E+03 0.  0.
<mgrwt>
<rscale>  2 0.45378964E+03</rscale>
<asrwt>0</asrwt>
<pdfrwt beam="1">  1       21 0.54529573E-01 0.45378964E+03</pdfrwt>
<pdfrwt beam="2">  1       21 0.20417344E-01 0.45378964E+03</pdfrwt>
<totfact> 0.65222917E+04</totfact>
</mgrwt>
</event>
<event>
 7    0  0.4709932E-002  0.4548533E+03  0.7546771E-02  0.1026285E+00
         21   -1    0    0  502  501  0.00000000000E+00  0.00000000000E+00  0.10618450441E+04  0.10618450441E+04  0.00000000000E+00 0.  1.
         21   -1    0    0  501  502 -0.00000000000E+00 -0.00000000000E+00 -0.48710384559E+02  0.48710384559E+02  0.00000000000E+00 0.  1.
      99926    2    1    2    0    0  0.00000000000E+00  0.00000000000E+00  0.10131346596E+04  0.11105554287E+04  0.45485329697E+03 0.  0.
      99925    2    3    3    0    0  0.17366446331E+02  0.75359980251E+02  0.43686990935E+03  0.51582078994E+03  0.26312553954E+03 0.  0.
         25    1    4    4    0    0 -0.99248273110E+01  0.17517073800E+01  0.17808492225E+03  0.21786077735E+03  0.12509000000E+03 0.  0.
         25    1    3    3    0    0 -0.17366446331E+02 -0.75359980251E+02  0.57626475021E+03  0.59473463874E+03  0.12509000000E+03 0.  0.
         25    1    4    4    0    0  0.27291273642E+02  0.73608272871E+02  0.25878498710E+03  0.29796001259E+03  0.12509000000E+03 0.  0.
<mgrwt>
<rscale>  2 0.45485330E+03</rscale>
<asrwt>0</asrwt>
<pdfrwt beam="1">  1       21 0.15615367E+00 0.45485330E+03</pdfrwt>
<pdfrwt beam="2">  1       21 0.71632925E-02 0.45485330E+03</pdfrwt>
<totfact> 0.35167085E+04</totfact>
</mgrwt>
</event>
<event>
 7    0  0.4709932E-002  0.4478507E+03  0.7546771E-02  0.1028365E+00
         21   -1    0    0  502  501  0.00000000000E+00  0.00000000000E+00  0.53874310661E+02  0.53874310661E+02  0.00000000000E+00 0.  1.
         21   -1    0    0  501  502 -0.00000000000E+00 -0.00000000000E+00 -0.93073238867E+03  0.93073238867E+03  0.00000000000E+00 0.  1.
      99926    2    1    2    0    0  0.00000000000E+00  0.00000000000E+00 -0.87685807801E+03  0.98460669933E+03  0.44785071552E+03 0.  0.
      99925    2    3    3    0    0  0.96213837318E+02 -0.10124635994E+02 -0.45874678060E+03  0.53758972441E+03  0.26304846005E+03 0.  0.
         25    1    4    4    0    0  0.61014871833E+02 -0.29461678906E+02 -0.29616448039E+03  0.32856005943E+03  0.12509000000E+03 0.  0.
         25    1    4    4    0    0  0.35198965484E+02  0.19337042912E+02 -0.16258230021E+03  0.20902966498E+03  0.12509000000E+03 0.  0.
         25    1    3    3    0    0 -0.96213837318E+02  0.10124635994E+02 -0.41811129741E+03  0.44701697492E+03  0.12509000000E+03 0.  0.
<mgrwt>
<rscale>  2 0.44785072E+03</rscale>
<asrwt>0</asrwt>
<pdfrwt beam="1">  1       21 0.79226934E-02 0.44785072E+03</pdfrwt>
<pdfrwt beam="2">  1       21 0.13687240E+00 0.44785072E+03</pdfrwt>
<totfact> 0.42071632E+04</totfact>
</mgrwt>
</event>
<event>
 7    0  0.4709932E-002  0.4523669E+03  0.7546771E-02  0.1027019E+00
         21   -1    0    0  502  501  0.00000000000E+00  0.00000000000E+00  0.40006016578E+03  0.40006016578E+03  0.00000000000E+00 0. -1.
         21   -1    0    0  501  502 -0.00000000000E+00 -0.00000000000E+00 -0.12787817236E+03  0.12787817236E+03  0.00000000000E+00 0. -1.
      99926    2    1    2    0    0  0.00000000000E+00  0.00000000000E+00  0.27218199342E+03  0.52793833813E+03  0.45236694323E+03 0.  0.
      99925    2    3    3    0    0  0.21639557096E+02 -0.79469117114E+02  0.25741789930E+03  0.37744216681E+03  0.26346727198E+03 0.  0.
         25    1    4    4    0    0  0.24430044092E+02 -0.22818337207E+02  0.17349190105E+03  0.21648198862E+03  0.12509000000E+03 0.  0.
         25    1    3    3    0    0 -0.21639557096E+02  0.79469117114E+02  0.14764094123E+02  0.15049617132E+03  0.12509000000E+03 0.  0.
         25    1    4    4    0    0 -0.27904869959E+01 -0.56650779907E+02  0.83925998246E+02  0.16096017819E+03  0.12509000000E+03 0.  0.
<mgrwt>
<rscale>  2 0.45236694E+03</rscale>
<asrwt>0</asrwt>
<pdfrwt beam="1">  1       21 0.58832377E-01 0.45236694E+03</pdfrwt>
<pdfrwt beam="2">  1       21 0.18805614E-01 0.45236694E+03</pdfrwt>
<totfact> 0.64685792E+04</totfact>
</mgrwt>
</event>
<event>
 7    0  0.4709932E-002  0.4587372E+03  0.7546771E-02  0.1025148E+00
         21   -1    0    0  502  501  0.00000000000E+00  0.00000000000E+00  0.91294160451E+03  0.91294160451E+03  0.00000000000E+00 0.  1.
         21   -1    0    0  501  502 -0.00000000000E+00 -0.00000000000E+00 -0.57626847076E+02  0.57626847076E+02  0.00000000000E+00 0.  1.
      99926    2    1    2    0    0  0.00000000000E+00  0.00000000000E+00  0.85531475743E+03  0.97056845159E+03  0.45873716323E+03 0.  0.
      99925    2    3    3    0    0  0.27442391152E+02  0.24100755363E+02  0.77077533157E+03  0.81523540981E+03  0.26302134973E+03 0.  0.
         25    1    4    4    0    0 -0.14440632839E+02  0.30931222055E+02  0.45052159990E+03  0.46880965482E+03  0.12509000000E+03 0.  0.
         25    1    4    4    0    0  0.41883023992E+02 -0.68304666913E+01  0.32025373167E+03  0.34642575500E+03  0.12509000000E+03 0.  0.
         25    1    3    3    0    0 -0.27442391152E+02 -0.24100755363E+02  0.84539425863E+02  0.15533304177E+03  0.12509000000E+03 0.  0.
<mgrwt>
<rscale>  2 0.45873716E+03</rscale>
<asrwt>0</asrwt>
<pdfrwt beam="1">  1       21 0.13425611E+00 0.45873716E+03</pdfrwt>
<pdfrwt beam="2">  1       21 0.84745369E-02 0.45873716E+03</pdfrwt>
<totfact> 0.39162192E+04</totfact>
</mgrwt>
</event>
<event>
 7    0  0.4709932E-002  0.4564681E+03  0.7546771E-02  0.1025811E+00
         21   -1    0    0  502  501  0.00000000000E+00  0.00000000000E+00  0.78856670577E+03  0.78856670577E+03  0.00000000000E+00 0.  1.
         21   -1    0    0  501  502 -0.00000000000E+00 -0.00000000000E+00 -0.66057555723E+02  0.66057555723E+02  0.00000000000E+00 0.  1.
      99926    2    1    2    0    0 -0.17763568394E-14  0.00000000000E+00  0.72250915004E+03  0.85462426149E+03  0.45646813299E+03 0.  0.
      99925    2    3    3    0    0  0.15111444102E+02  0.10860817842E+03  0.39099427189E+03  0.48371495357E+03  0.26282987557E+03 0.  0.
         25    1    3    3    0    0 -0.15111444102E+02 -0.10860817842E+03  0.33151487816E+03  0.37090930792E+03  0.12509000000E+03 0.  0.
         25    1    4    4    0    0 -0.23221903689E+02  0.25469239808E+02  0.17512927751E+03  0.21795804855E+03  0.12509000000E+03 0.  0.
         25    1    4    4    0    0  0.38333347791E+02  0.83138938616E+02  0.21586499438E+03  0.26575690502E+03  0.12509000000E+03 0.  0.
<mgrwt>
<rscale>  2 0.45646813E+03</rscale>
<asrwt>0</asrwt>
<pdfrwt beam="1">  1       21 0.11596569E+00 0.45646813E+03</pdfrwt>
<pdfrwt beam="2">  1       21 0.97143469E-02 0.45646813E+03</pdfrwt>
<totfact> 0.44716027E+04</totfact>
</mgrwt>
</event>
<event>
 7    0  0.4709932E-002  0.4559617E+03  0.7546771E-02  0.1025959E+00
         21   -1    0    0  502  501  0.00000000000E+00  0.00000000000E+00  0.17067014694E+03  0.17067014694E+03  0.00000000000E+00 0. -1.
         21   -1    0    0  501  502 -0.00000000000E+00 -0.00000000000E+00 -0.30453639177E+03  0.30453639177E+03  0.00000000000E+00 0. -1.
      99926    2    1    2    0    0  0.00000000000E+00  0.00000000000E+00 -0.13386624484E+03  0.47520653871E+03  0.45596171213E+03 0.  0.
      99925    2    3    3    0    0  0.12104129348E+02  0.40749711773E+02 -0.19440109482E+03  0.32988267584E+03  0.26310405774E+03 0.  0.
         25    1    4    4    0    0 -0.28533748517E+01 -0.17289748595E+02 -0.11014308201E+03  0.16758903237E+03  0.12509000000E+03 0.  0.
         25    1    4    4    0    0  0.14957504200E+02  0.58039460368E+02 -0.84258012802E+02  0.16229364348E+03  0.12509000000E+03 0.  0.
         25    1    3    3    0    0 -0.12104129348E+02 -0.40749711773E+02  0.60534849977E+02  0.14532386287E+03  0.12509000000E+03 0.  0.
<mgrwt>
<rscale>  2 0.45596171E+03</rscale>
<asrwt>0</asrwt>
<pdfrwt beam="1">  1       21 0.25098551E-01 0.45596171E+03</pdfrwt>
<pdfrwt beam="2">  1       21 0.44784763E-01 0.45596171E+03</pdfrwt>
<totfact> 0.66541443E+04</totfact>
</mgrwt>
</event>
<event>
 7    0  0.4709932E-002  0.4547021E+03  0.7546771E-02  0.1026329E+00
         21   -1    0    0  502  501  0.00000000000E+00  0.00000000000E+00  0.81171447276E+02  0.81171447276E+02  0.00000000000E+00 0. -1.
         21   -1    0    0  501  502 -0.00000000000E+00 -0.00000000000E+00 -0.63678167700E+03  0.63678167700E+03  0.00000000000E+00 0. -1.
      99926    2    1    2    0    0  0.00000000000E+00  0.00000000000E+00 -0.55561022972E+03  0.71795312427E+03  0.45470205771E+03 0.  0.
      99925    2    3    3    0    0  0.11068456758E+03 -0.11711322109E+02 -0.31960574015E+03  0.42858509604E+03  0.26296221562E+03 0.  0.
         25    1    3    3    0    0 -0.11068456758E+03  0.11711322109E+02 -0.23600448957E+03  0.28936802823E+03  0.12509000000E+03 0.  0.
         25    1    4    4    0    0  0.94908528316E+02  0.21532252935E+01 -0.15357331983E+03  0.21964639262E+03  0.12509000000E+03 0.  0.
         25    1    4    4    0    0  0.15776039269E+02 -0.13864547402E+02 -0.16603242032E+03  0.20893870342E+03  0.12509000000E+03 0.  0.
<mgrwt>
<rscale>  2 0.45470206E+03</rscale>
<asrwt>0</asrwt>
<pdfrwt beam="1">  1       21 0.11936978E-01 0.45470206E+03</pdfrwt>
<pdfrwt beam="2">  1       21 0.93644363E-01 0.45470206E+03</pdfrwt>
<totfact> 0.52060975E+04</totfact>
</mgrwt>
</event>
<event>
 7    0  0.4709932E-002  0.4558141E+03  0.7546771E-02  0.1026002E+00
         21   -1    0    0  502  501  0.00000000000E+00  0.00000000000E+00  0.20938781522E+03  0.20938781522E+03  0.00000000000E+00 0. -1.
         21   -1    0    0  501  502 -0.00000000000E+00 -0.00000000000E+00 -0.24806425129E+03  0.24806425129E+03  0.00000000000E+00 0. -1.
      99926    2    1    2    0    0 -0.53290705182E-14  0.88817841970E-15 -0.38676436075E+02  0.45745206651E+03  0.45581413585E+03 0.  0.
      99925    2    3    3    0    0  0.81783254328E+01 -0.74216706213E+01 -0.13802836018E+03  0.29732624372E+03  0.26311423524E+03 0.  0.
         25    1    3    3    0    0 -0.81783254328E+01  0.74216706213E+01  0.99351924103E+02  0.16012582279E+03  0.12509000000E+03 0.  0.
         25    1    4    4    0    0  0.41389626880E+02  0.55444722956E+01 -0.84782381575E+02  0.15677819591E+03  0.12509000000E+03 0.  0.
         25    1    4    4    0    0 -0.33211301447E+02 -0.12966142917E+02 -0.53245978603E+02  0.14054804781E+03  0.12509000000E+03 0.  0.
<mgrwt>
<rscale>  2 0.45581414E+03</rscale>
<asrwt>0</asrwt>
<pdfrwt beam="1">  1       21 0.30792326E-01 0.45581414E+03</pdfrwt>
<pdfrwt beam="2">  1       21 0.36480037E-01 0.45581414E+03</pdfrwt>
<totfact> 0.67924265E+04</totfact>
</mgrwt>
</event>
<event>
 7    0  0.4709932E-002  0.4569623E+03  0.7546771E-02  0.1025666E+00
         21   -1    0    0  502  501  0.00000000000E+00  0.00000000000E+00  0.85091509563E+02  0.85091509563E+02  0.00000000000E+00 0.  1.
         21   -1    0    0  501  502 -0.00000000000E+00 -0.00000000000E+00 -0.61349982324E+03  0.61349982324E+03  0.00000000000E+00 0.  1.
      99926    2    1    2    0    0  0.00000000000E+00  0.00000000000E+00 -0.52840831368E+03  0.69859133281E+03  0.45696225698E+03 0.  0.
      99925    2    3    3    0    0 -0.83079272370E+02  0.79513738066E+02 -0.33037886394E+03  0.43765499746E+03  0.26299639356E+03 0.  0.
         25    1    4    4    0    0 -0.30807648367E+02  0.47364364774E+02 -0.22254248164E+03  0.26146731819E+03  0.12509000000E+03 0.  0.
         25    1    4    4    0    0 -0.52271624002E+02  0.32149373291E+02 -0.10783638230E+03  0.17618767927E+03  0.12509000000E+03 0.  0.
         25    1    3    3    0    0  0.83079272370E+02 -0.79513738066E+02 -0.19802944974E+03  0.26093633534E+03  0.12509000000E+03 0.  0.
<mgrwt>
<rscale>  2 0.45696226E+03</rscale>
<asrwt>0</asrwt>
<pdfrwt beam="1">  1       21 0.12513457E-01 0.45696226E+03</pdfrwt>
<pdfrwt beam="2">  1       21 0.90220565E-01 0.45696226E+03</pdfrwt>
<totfact> 0.52169167E+04</totfact>
</mgrwt>
</event>
<event>
 7    0  0.4709932E-002  0.4570032E+03  0.7546771E-02  0.1025654E+00
         21   -1    0    0  502  501  0.00000000000E+00  0.00000000000E+00  0.56880378057E+03  0.56880378057E+03  0.00000000000E+00 0.  1.
         21   -1    0    0  501  502 -0.00000000000E+00 -0.00000000000E+00 -0.91794364371E+02  0.91794364371E+02  0.00000000000E+00 0.  1.
      99926    2    1    2    0    0  0.00000000000E+00  0.00000000000E+00  0.47700941620E+03  0.66059814494E+03  0.45700320125E+03 0.  0.
      99925    2    3    3    0    0  0.70047326441E+02  0.67196439043E+02  0.21040679254E+03  0.35052322431E+03  0.26300859886E+03 0.  0.
         25    1    4    4    0    0 -0.43770908608E+01  0.20935998157E+02  0.83096320142E+02  0.15169041323E+03  0.12509000000E+03 0.  0.
         25    1    4    4    0    0  0.74424417302E+02  0.46260440886E+02  0.12731047239E+03  0.19883281108E+03  0.12509000000E+03 0.  0.
         25    1    3    3    0    0 -0.70047326441E+02 -0.67196439043E+02  0.26660262366E+03  0.31007492063E+03  0.12509000000E+03 0.  0.
<mgrwt>
<rscale>  2 0.45700320E+03</rscale>
<asrwt>0</asrwt>
<pdfrwt beam="1">  1       21 0.83647613E-01 0.45700320E+03</pdfrwt>
<pdfrwt beam="2">  1       21 0.13499172E-01 0.45700320E+03</pdfrwt>
<totfact> 0.54232772E+04</totfact>
</mgrwt>
</event>
<event>
 7    0  0.4709932E-002  0.4588717E+03  0.7546771E-02  0.1025109E+00
         21   -1    0    0  502  501  0.00000000000E+00  0.00000000000E+00  0.83687857124E+03  0.83687857124E+03  0.00000000000E+00 0. -1.
         21   -1    0    0  501  502 -0.00000000000E+00 -0.00000000000E+00 -0.62901358101E+02  0.62901358101E+02  0.00000000000E+00 0. -1.
      99926    2    1    2    0    0 -0.71054273576E-14  0.00000000000E+00  0.77397721314E+03  0.89977992934E+03  0.45887165394E+03 0.  0.
      99925    2    3    3    0    0 -0.53410220773E+02 -0.42239374626E+02  0.67132055751E+03  0.72421594244E+03  0.26302209773E+03 0.  0.
         25    1    4    4    0    0 -0.31105343811E+02 -0.40196281353E+02  0.44045606428E+03  0.46068680914E+03  0.12509000000E+03 0.  0.
         25    1    4    4    0    0 -0.22304876962E+02 -0.20430932730E+01  0.23086449323E+03  0.26352913330E+03  0.12509000000E+03 0.  0.
         25    1    3    3    0    0  0.53410220773E+02  0.42239374626E+02  0.10265665563E+03  0.17556398690E+03  0.12509000000E+03 0.  0.
<mgrwt>
<rscale>  2 0.45887165E+03</rscale>
<asrwt>0</asrwt>
<pdfrwt beam="1">  1       21 0.12307037E+00 0.45887165E+03</pdfrwt>
<pdfrwt beam="2">  1       21 0.92502002E-02 0.45887165E+03</pdfrwt>
<totfact> 0.41956822E+04</totfact>
</mgrwt>
</event>
<event>
 7    0  0.4709932E-002  0.4538388E+03  0.7546771E-02  0.1026583E+00
         21   -1    0    0  502  501  0.00000000000E+00  0.00000000000E+00  0.61299879895E+03  0.61299879895E+03  0.00000000000E+00 0. -1.
         21   -1    0    0  501  502 -0.00000000000E+00 -0.00000000000E+00 -0.84000825778E+02  0.84000825778E+02  0.00000000000E+00 0. -1.
      99926    2    1    2    0    0  0.00000000000E+00  0.00000000000E+00  0.52899797317E+03  0.69699962473E+03  0.45383876129E+03 0.  0.
      99925    2    3    3    0    0 -0.41564144132E+02 -0.43944601454E+02  0.18840252053E+03  0.32915254164E+03  0.26303456019E+03 0.  0.
         25    1    4    4    0    0 -0.42698363765E+02 -0.31116102263E+02  0.13820922489E+03  0.19375412262E+03  0.12509000000E+03 0.  0.
         25    1    4    4    0    0  0.11342196324E+01 -0.12828499190E+02  0.50193295640E+02  0.13539841902E+03  0.12509000000E+03 0.  0.
         25    1    3    3    0    0  0.41564144132E+02  0.43944601454E+02  0.34059545264E+03  0.36784708309E+03  0.12509000000E+03 0.  0.
<mgrwt>
<rscale>  2 0.45383876E+03</rscale>
<asrwt>0</asrwt>
<pdfrwt beam="1">  1       21 0.90146880E-01 0.45383876E+03</pdfrwt>
<pdfrwt beam="2">  1       21 0.12353063E-01 0.45383876E+03</pdfrwt>
<totfact> 0.53553952E+04</totfact>
</mgrwt>
</event>
<event>
 7    0  0.4709932E-002  0.4282267E+03  0.7546771E-02  0.1034422E+00
         21   -1    0    0  502  501  0.00000000000E+00  0.00000000000E+00  0.92390661921E+02  0.92390661921E+02  0.00000000000E+00 0.  1.
         21   -1    0    0  501  502 -0.00000000000E+00 -0.00000000000E+00 -0.49620303584E+03  0.49620303584E+03  0.00000000000E+00 0.  1.
      99926    2    1    2    0    0 -0.71054273576E-14  0.00000000000E+00 -0.40381237392E+03  0.58859369777E+03  0.42822670131E+03 0.  0.
      99925    2    3    3    0    0 -0.42183389580E+02  0.56310454170E+02 -0.19358308367E+03  0.33404671156E+03  0.26298762255E+03 0.  0.
         25    1    4    4    0    0 -0.50723767763E+02  0.68633511934E+01 -0.11858992961E+03  0.17980846952E+03  0.12509000000E+03 0.  0.
         25    1    4    4    0    0  0.85403781829E+01  0.49447102977E+02 -0.74993154058E+02  0.15423824204E+03  0.12509000000E+03 0.  0.
         25    1    3    3    0    0  0.42183389580E+02 -0.56310454170E+02 -0.21022929026E+03  0.25454698621E+03  0.12509000000E+03 0.  0.
<mgrwt>
<rscale>  2 0.42822670E+03</rscale>
<asrwt>0</asrwt>
<pdfrwt beam="1">  1       21 0.13586862E-01 0.42822670E+03</pdfrwt>
<pdfrwt beam="2">  1       21 0.72971034E-01 0.42822670E+03</pdfrwt>
<totfact> 0.73806177E+04</totfact>
</mgrwt>
</event>
<event>
 7    0  0.4709932E-002  0.4603304E+03  0.7546771E-02  0.1024685E+00
         21   -1    0    0  502  501  0.00000000000E+00  0.00000000000E+00  0.74095117472E+03  0.74095117472E+03  0.00000000000E+00 0.  1.
         21   -1    0    0  501  502 -0.00000000000E+00 -0.00000000000E+00 -0.71497307531E+02  0.71497307531E+02  0.00000000000E+00 0.  1.
      99926    2    1    2    0    0  0.00000000000E+00 -0.71054273576E-14  0.66945386719E+03  0.81244848225E+03  0.46033037703E+03 0.  0.
      99925    2    3    3    0    0  0.50462035378E+02  0.56941425784E+02  0.25963406189E+03  0.37726056433E+03  0.26292003409E+03 0.  0.
         25    1    4    4    0    0  0.51517017958E+02  0.61312840540E+02  0.13947681390E+03  0.20375121415E+03  0.12509000000E+03 0.  0.
         25    1    3    3    0    0 -0.50462035378E+02 -0.56941425784E+02  0.40981980530E+03  0.43518791792E+03  0.12509000000E+03 0.  0.
         25    1    4    4    0    0 -0.10549825793E+01 -0.43714147558E+01  0.12015724799E+03  0.17350935018E+03  0.12509000000E+03 0.  0.
<mgrwt>
<rscale>  2 0.46033038E+03</rscale>
<asrwt>0</asrwt>
<pdfrwt beam="1">  1       21 0.10896340E+00 0.46033038E+03</pdfrwt>
<pdfrwt beam="2">  1       21 0.10514310E-01 0.46033038E+03</pdfrwt>
<totfact> 0.45246133E+04</totfact>
</mgrwt>
</event>
<event>
 7    0  0.4709932E-002  0.4577725E+03  0.7546771E-02  0.1025429E+00
         21   -1    0    0  502  501  0.00000000000E+00  0.00000000000E+00  0.42358217559E+02  0.42358217559E+02  0.00000000000E+00 0.  1.
         21   -1    0    0  501  502 -0.00000000000E+00 -0.00000000000E+00 -0.12368065787E+04  0.12368065787E+04  0.00000000000E+00 0.  1.
      99926    2    1    2    0    0  0.71054273576E-14  0.00000000000E+00 -0.11944483611E+04  0.12791647962E+04  0.45777252927E+03 0.  0.
      99925    2    3    3    0    0 -0.52881911298E+02 -0.10284769489E+03 -0.73240375192E+03  0.78671492683E+03  0.26292769993E+03 0.  0.
         25    1    4    4    0    0 -0.33044333025E+02 -0.32594360541E+02 -0.25459558927E+03  0.28743824112E+03  0.12509000000E+03 0.  0.
         25    1    4    4    0    0 -0.19837578273E+02 -0.70253334348E+02 -0.47780816265E+03  0.49927668571E+03  0.12509000000E+03 0.  0.
         25    1    3    3    0    0  0.52881911298E+02  0.10284769489E+03 -0.46204460919E+03  0.49244986940E+03  0.12509000000E+03 0.  0.
<mgrwt>
<rscale>  2 0.45777253E+03</rscale>
<asrwt>0</asrwt>
<pdfrwt beam="1">  1       21 0.62291501E-02 0.45777253E+03</pdfrwt>
<pdfrwt beam="2">  1       21 0.18188331E+00 0.45777253E+03</pdfrwt>
<totfact> 0.29093105E+04</totfact>
</mgrwt>
</event>
<event>
 7    0  0.4709932E-002  0.4460780E+03  0.7546771E-02  0.1028898E+00
         21   -1    0    0  502  501  0.00000000000E+00  0.00000000000E+00  0.29126358202E+02  0.29126358202E+02  0.00000000000E+00 0. -1.
         21   -1    0    0  501  502 -0.00000000000E+00 -0.00000000000E+00 -0.17079508231E+04  0.17079508231E+04  0.00000000000E+00 0. -1.
      99926    2    1    2    0    0  0.14210854715E-13  0.00000000000E+00 -0.16788244649E+04  0.17370771813E+04  0.44607796389E+03 0.  0.
      99925    2    3    3    0    0 -0.88975715629E+02  0.52007662995E+02 -0.11341519976E+04  0.11688016497E+04  0.26301153571E+03 0.  0.
         25    1    4    4    0    0 -0.37802086029E+02  0.40933420869E+02 -0.72331069418E+03  0.73615922943E+03  0.12509000000E+03 0.  0.
         25    1    4    4    0    0 -0.51173629599E+02  0.11074242126E+02 -0.41084130337E+03  0.43264242032E+03  0.12509000000E+03 0.  0.
         25    1    3    3    0    0  0.88975715629E+02 -0.52007662995E+02 -0.54467246738E+03  0.56827553159E+03  0.12509000000E+03 0.  0.
<mgrwt>
<rscale>  2 0.44607796E+03</rscale>
<asrwt>0</asrwt>
<pdfrwt beam="1">  1       21 0.42832890E-02 0.44607796E+03</pdfrwt>
<pdfrwt beam="2">  1       21 0.25116918E+00 0.44607796E+03</pdfrwt>
<totfact> 0.19839514E+04</totfact>
</mgrwt>
</event>
<event>
 7    0  0.4709932E-002  0.4563408E+03  0.7546771E-02  0.1025848E+00
         21   -1    0    0  502  501  0.00000000000E+00  0.00000000000E+00  0.53290666194E+02  0.53290666194E+02  0.00000000000E+00 0.  1.
         21   -1    0    0  501  502 -0.00000000000E+00 -0.00000000000E+00 -0.97693909166E+03  0.97693909166E+03  0.00000000000E+00 0.  1.
      99926    2    1    2    0    0  0.00000000000E+00  0.35527136788E-14 -0.92364842547E+03  0.10302297579E+04  0.45634081573E+03 0.  0.
      99925    2    3    3    0    0  0.31945678515E+02 -0.27519780329E+02 -0.34338141322E+03  0.43513717826E+03  0.26392367131E+03 0.  0.
         25    1    3    3    0    0 -0.31945678515E+02  0.27519780329E+02 -0.58026701225E+03  0.59509257959E+03  0.12509000000E+03 0.  0.
         25    1    4    4    0    0 -0.53426280420E+01 -0.47803886845E+02 -0.19312443504E+03  0.23507086332E+03  0.12509000000E+03 0.  0.
         25    1    4    4    0    0  0.37288306557E+02  0.20284106516E+02 -0.15025697818E+03  0.20006631494E+03  0.12509000000E+03 0.  0.
<mgrwt>
<rscale>  2 0.45634082E+03</rscale>
<asrwt>0</asrwt>
<pdfrwt beam="1">  1       21 0.78368633E-02 0.45634082E+03</pdfrwt>
<pdfrwt beam="2">  1       21 0.14366750E+00 0.45634082E+03</pdfrwt>
<totfact> 0.37616000E+04</totfact>
</mgrwt>
</event>
<event>
 7    0  0.4709932E-002  0.4531804E+03  0.7546771E-02  0.1026778E+00
         21   -1    0    0  502  501  0.00000000000E+00  0.00000000000E+00  0.23909688350E+03  0.23909688350E+03  0.00000000000E+00 0.  1.
         21   -1    0    0  501  502 -0.00000000000E+00 -0.00000000000E+00 -0.21473773051E+03  0.21473773051E+03  0.00000000000E+00 0.  1.
      99926    2    1    2    0    0 -0.35527136788E-14 -0.17763568394E-14  0.24359152997E+02  0.45383461401E+03  0.45318041500E+03 0.  0.
      99925    2    3    3    0    0  0.17910781797E+02  0.72936870341E+01 -0.94571537987E+02  0.28015096097E+03  0.26299580065E+03 0.  0.
         25    1    4    4    0    0 -0.18079368127E+02  0.29610156387E+02 -0.30410723901E+02  0.13332646077E+03  0.12509000000E+03 0.  0.
         25    1    4    4    0    0  0.35990149924E+02 -0.22316469353E+02 -0.64160814086E+02  0.14682450020E+03  0.12509000000E+03 0.  0.
         25    1    3    3    0    0 -0.17910781797E+02 -0.72936870341E+01  0.11893069098E+03  0.17368365304E+03  0.12509000000E+03 0.  0.
<mgrwt>
<rscale>  2 0.45318042E+03</rscale>
<asrwt>0</asrwt>
<pdfrwt beam="1">  1       21 0.35161307E-01 0.45318042E+03</pdfrwt>
<pdfrwt beam="2">  1       21 0.31579078E-01 0.45318042E+03</pdfrwt>
<totfact> 0.69636804E+04</totfact>
</mgrwt>
</event>
<event>
 7    0  0.4709932E-002  0.4525993E+03  0.7546771E-02  0.1026950E+00
         21   -1    0    0  502  501  0.00000000000E+00  0.00000000000E+00  0.27472529884E+03  0.27472529884E+03  0.00000000000E+00 0. -1.
         21   -1    0    0  501  502 -0.00000000000E+00 -0.00000000000E+00 -0.18640999875E+03  0.18640999875E+03  0.00000000000E+00 0. -1.
      99926    2    1    2    0    0  0.00000000000E+00  0.14210854715E-13  0.88315300092E+02  0.46113529759E+03  0.45259934871E+03 0.  0.
      99925    2    3    3    0    0  0.45630577374E+02 -0.94724079598E+02  0.91422792085E+02  0.29769734162E+03  0.26307941661E+03 0.  0.
         25    1    4    4    0    0  0.63663741327E+02 -0.48229674375E+02  0.53966460512E+02  0.15792105753E+03  0.12509000000E+03 0.  0.
         25    1    4    4    0    0 -0.18033163953E+02 -0.46494405223E+02  0.37456331573E+02  0.13977628409E+03  0.12509000000E+03 0.  0.
         25    1    3    3    0    0 -0.45630577374E+02  0.94724079598E+02 -0.31074919931E+01  0.16343795598E+03  0.12509000000E+03 0.  0.
<mgrwt>
<rscale>  2 0.45259935E+03</rscale>
<asrwt>0</asrwt>
<pdfrwt beam="1">  1       21 0.40400779E-01 0.45259935E+03</pdfrwt>
<pdfrwt beam="2">  1       21 0.27413235E-01 0.45259935E+03</pdfrwt>
<totfact> 0.69413265E+04</totfact>
</mgrwt>
</event>
<event>
 7    0  0.4709932E-002  0.4561938E+03  0.7546771E-02  0.1025891E+00
         21   -1    0    0  502  501  0.00000000000E+00  0.00000000000E+00  0.14209373367E+04  0.14209373367E+04  0.00000000000E+00 0.  1.
         21   -1    0    0  501  502 -0.00000000000E+00 -0.00000000000E+00 -0.36615412582E+02  0.36615412582E+02  0.00000000000E+00 0.  1.
      99926    2    1    2    0    0  0.00000000000E+00  0.00000000000E+00  0.13843219241E+04  0.14575527493E+04  0.45619384843E+03 0.  0.
      99925    2    3    3    0    0 -0.89907137858E+02 -0.58980099378E+02  0.74669857399E+03  0.79893830191E+03  0.26302415155E+03 0.  0.
         25    1    4    4    0    0 -0.89143708783E+01 -0.45497720005E+02  0.38747330352E+03  0.40979577544E+03  0.12509000000E+03 0.  0.
         25    1    4    4    0    0 -0.80992766979E+02 -0.13482379373E+02  0.35922527047E+03  0.38914252646E+03  0.12509000000E+03 0.  0.
         25    1    3    3    0    0  0.89907137858E+02  0.58980099378E+02  0.63762335013E+03  0.65861444737E+03  0.12509000000E+03 0.  0.
<mgrwt>
<rscale>  2 0.45619385E+03</rscale>
<asrwt>0</asrwt>
<pdfrwt beam="1">  1       21 0.20896134E+00 0.45619385E+03</pdfrwt>
<pdfrwt beam="2">  1       21 0.53846204E-02 0.45619385E+03</pdfrwt>
<totfact> 0.24608741E+04</totfact>
</mgrwt>
</event>
<event>
 7    0  0.4709932E-002  0.4580798E+03  0.7546771E-02  0.1025340E+00
         21   -1    0    0  502  501  0.00000000000E+00  0.00000000000E+00  0.54370254829E+03  0.54370254829E+03  0.00000000000E+00 0.  1.
         21   -1    0    0  501  502 -0.00000000000E+00 -0.00000000000E+00 -0.96485265856E+02  0.96485265856E+02  0.00000000000E+00 0.  1.
      99926    2    1    2    0    0  0.35527136788E-14  0.00000000000E+00  0.44721728244E+03  0.64018781415E+03  0.45807983985E+03 0.  0.
      99925    2    3    3    0    0  0.29500532007E+02 -0.29534874038E+02  0.12941680994E+03  0.29611334751E+03  0.26304336849E+03 0.  0.
         25    1    3    3    0    0 -0.29500532007E+02  0.29534874038E+02  0.31780047250E+03  0.34407446664E+03  0.12509000000E+03 0.  0.
         25    1    4    4    0    0  0.26688624644E+02 -0.52262589948E+02  0.80148388746E+02  0.15973394540E+03  0.12509000000E+03 0.  0.
         25    1    4    4    0    0  0.28119073629E+01  0.22727715910E+02  0.49268421192E+02  0.13637940211E+03  0.12509000000E+03 0.  0.
<mgrwt>
<rscale>  2 0.45807984E+03</rscale>
<asrwt>0</asrwt>
<pdfrwt beam="1">  1       21 0.79956256E-01 0.45807984E+03</pdfrwt>
<pdfrwt beam="2">  1       21 0.14189010E-01 0.45807984E+03</pdfrwt>
<totfact> 0.54923199E+04</totfact>
</mgrwt>
</event>
<event>
 7    0  0.4709932E-002  0.3980097E+03  0.7546771E-02  0.1044471E+00
         21   -1    0    0  502  501  0.00000000000E+00  0.00000000000E+00  0.12066057470E+03  0.12066057470E+03  0.00000000000E+00 0.  1.
         21   -1    0    0  501  502 -0.00000000000E+00 -0.00000000000E+00 -0.32821767971E+03  0.32821767971E+03  0.00000000000E+00 0.  1.
      99926    2    1    2    0    0 -0.35527136788E-14  0.00000000000E+00 -0.20755710502E+03  0.44887825441E+03  0.39800971777E+03 0.  0.
      99925    2    3    3    0    0  0.13491867764E+02 -0.16850608666E+02 -0.17870118122E+03  0.31870089099E+03  0.26300222859E+03 0.  0.
         25    1    4    4    0    0  0.39562818797E+02 -0.96568044682E+01 -0.61714876127E+02  0.14530899676E+03  0.12509000000E+03 0.  0.
         25    1    3    3    0    0 -0.13491867764E+02  0.16850608666E+02 -0.28855923801E+02  0.13017736342E+03  0.12509000000E+03 0.  0.
         25    1    4    4    0    0 -0.26070951032E+02 -0.71938041982E+01 -0.11698630509E+03  0.17339189423E+03  0.12509000000E+03 0.  0.
<mgrwt>
<rscale>  2 0.39800972E+03</rscale>
<asrwt>0</asrwt>
<pdfrwt beam="1">  1       21 0.17744203E-01 0.39800972E+03</pdfrwt>
<pdfrwt beam="2">  1       21 0.48267305E-01 0.39800972E+03</pdfrwt>
<totfact> 0.11159417E+05</totfact>
</mgrwt>
</event>
<event>
 7    0  0.4709932E-002  0.4555942E+03  0.7546771E-02  0.1026067E+00
         21   -1    0    0  502  501  0.00000000000E+00  0.00000000000E+00  0.21564886426E+03  0.21564886426E+03  0.00000000000E+00 0. -1.
         21   -1    0    0  501  502 -0.00000000000E+00 -0.00000000000E+00 -0.24062969229E+03  0.24062969229E+03  0.00000000000E+00 0. -1.
      99926    2    1    2    0    0  0.00000000000E+00 -0.71054273576E-14 -0.24980828026E+02  0.45627855655E+03  0.45559420474E+03 0.  0.
      99925    2    3    3    0    0  0.94279431127E+02  0.52573956159E+02 -0.51682855788E+02  0.28890729741E+03  0.26295185284E+03 0.  0.
         25    1    3    3    0    0 -0.94279431127E+02 -0.52573956159E+02  0.26702027762E+02  0.16737125914E+03  0.12509000000E+03 0.  0.
         25    1    4    4    0    0  0.66287407082E+02 -0.90980657449E+01 -0.30318943408E+02  0.14506392235E+03  0.12509000000E+03 0.  0.
         25    1    4    4    0    0  0.27992024045E+02  0.61672021904E+02 -0.21363912380E+02  0.14384337506E+03  0.12509000000E+03 0.  0.
<mgrwt>
<rscale>  2 0.45559420E+03</rscale>
<asrwt>0</asrwt>
<pdfrwt beam="1">  1       21 0.31713068E-01 0.45559420E+03</pdfrwt>
<pdfrwt beam="2">  1       21 0.35386719E-01 0.45559420E+03</pdfrwt>
<totfact> 0.68128683E+04</totfact>
</mgrwt>
</event>
<event>
 7    0  0.4709932E-002  0.4556538E+03  0.7546771E-02  0.1026049E+00
         21   -1    0    0  502  501  0.00000000000E+00  0.00000000000E+00  0.40055695318E+02  0.40055695318E+02  0.00000000000E+00 0.  1.
         21   -1    0    0  501  502 -0.00000000000E+00 -0.00000000000E+00 -0.12958228974E+04  0.12958228974E+04  0.00000000000E+00 0.  1.
      99926    2    1    2    0    0 -0.13322676296E-14  0.00000000000E+00 -0.12557672021E+04  0.13358785927E+04  0.45565375963E+03 0.  0.
      99925    2    3    3    0    0  0.30320850191E+01  0.61895400596E+02 -0.50994001891E+03  0.57709935644E+03  0.26299165416E+03 0.  0.
         25    1    4    4    0    0  0.29719329526E+02  0.31146801115E+02 -0.31786226130E+03  0.34429244404E+03  0.12509000000E+03 0.  0.
         25    1    4    4    0    0 -0.26687244507E+02  0.30748599481E+02 -0.19207775761E+03  0.23280691239E+03  0.12509000000E+03 0.  0.
         25    1    3    3    0    0 -0.30320850191E+01 -0.61895400596E+02 -0.74582718320E+03  0.75877923631E+03  0.12509000000E+03 0.  0.
<mgrwt>
<rscale>  2 0.45565376E+03</rscale>
<asrwt>0</asrwt>
<pdfrwt beam="1">  1       21 0.58905435E-02 0.45565376E+03</pdfrwt>
<pdfrwt beam="2">  1       21 0.19056219E+00 0.45565376E+03</pdfrwt>
<totfact> 0.27947971E+04</totfact>
</mgrwt>
</event>
<event>
 7    0  0.4709932E-002  0.4039797E+03  0.7546771E-02  0.1042410E+00
         21   -1    0    0  502  501  0.00000000000E+00  0.00000000000E+00  0.22300946339E+03  0.22300946339E+03  0.00000000000E+00 0. -1.
         21   -1    0    0  501  502 -0.00000000000E+00 -0.00000000000E+00 -0.18295139448E+03  0.18295139448E+03  0.00000000000E+00 0. -1.
      99926    2    1    2    0    0  0.71054273576E-14 -0.13322676296E-14  0.40058068902E+02  0.40596085787E+03  0.40397966439E+03 0.  0.
      99925    2    3    3    0    0 -0.50755339641E+02  0.39155335732E+01  0.12383722588E+02  0.26810291124E+03  0.26293417147E+03 0.  0.
         25    1    4    4    0    0 -0.38725889974E+02  0.32813706264E+02 -0.16381720245E+02  0.13598640642E+03  0.12509000000E+03 0.  0.
         25    1    4    4    0    0 -0.12029449667E+02 -0.28898172691E+02  0.28765442833E+02  0.13211650482E+03  0.12509000000E+03 0.  0.
         25    1    3    3    0    0  0.50755339641E+02 -0.39155335732E+01  0.27674346314E+02  0.13785794663E+03  0.12509000000E+03 0.  0.
<mgrwt>
<rscale>  2 0.40397966E+03</rscale>
<asrwt>0</asrwt>
<pdfrwt beam="1">  1       21 0.32795509E-01 0.40397966E+03</pdfrwt>
<pdfrwt beam="2">  1       21 0.26904617E-01 0.40397966E+03</pdfrwt>
<totfact> 0.11108574E+05</totfact>
</mgrwt>
</event>
<event>
 7    0  0.4709932E-002  0.4540753E+03  0.7546771E-02  0.1026514E+00
         21   -1    0    0  502  501  0.00000000000E+00  0.00000000000E+00  0.54297154953E+02  0.54297154953E+02  0.00000000000E+00 0. -1.
         21   -1    0    0  501  502 -0.00000000000E+00 -0.00000000000E+00 -0.94933336290E+03  0.94933336290E+03  0.00000000000E+00 0. -1.
      99926    2    1    2    0    0  0.00000000000E+00  0.00000000000E+00 -0.89503620795E+03  0.10036305179E+04  0.45407532726E+03 0.  0.
      99925    2    3    3    0    0  0.99272913602E+02  0.49155005656E+02 -0.52344427128E+03  0.59620027664E+03  0.26303904421E+03 0.  0.
         25    1    3    3    0    0 -0.99272913602E+02 -0.49155005656E+02 -0.37159193667E+03  0.40743024121E+03  0.12509000000E+03 0.  0.
         25    1    4    4    0    0  0.11163364475E+02  0.35251428561E+02 -0.21183271310E+03  0.24877276853E+03  0.12509000000E+03 0.  0.
         25    1    4    4    0    0  0.88109549127E+02  0.13903577094E+02 -0.31161155818E+03  0.34742750811E+03  0.12509000000E+03 0.  0.
<mgrwt>
<rscale>  2 0.45407533E+03</rscale>
<asrwt>0</asrwt>
<pdfrwt beam="1">  1       21 0.79848761E-02 0.45407533E+03</pdfrwt>
<pdfrwt beam="2">  1       21 0.13960784E+00 0.45407533E+03</pdfrwt>
<totfact> 0.39308971E+04</totfact>
</mgrwt>
</event>
<event>
 7    0  0.4709932E-002  0.4515878E+03  0.7546771E-02  0.1027250E+00
         21   -1    0    0  502  501  0.00000000000E+00  0.00000000000E+00  0.13739703541E+04  0.13739703541E+04  0.00000000000E+00 0.  1.
         21   -1    0    0  501  502 -0.00000000000E+00 -0.00000000000E+00 -0.37106248788E+02  0.37106248788E+02  0.00000000000E+00 0.  1.
      99926    2    1    2    0    0 -0.14210854715E-13  0.00000000000E+00  0.13368641053E+04  0.14110766029E+04  0.45158780226E+03 0.  0.
      99925    2    3    3    0    0  0.75108739946E+02  0.61721800383E+02  0.68410750239E+03  0.73937012368E+03  0.26308592038E+03 0.  0.
         25    1    3    3    0    0 -0.75108739946E+02 -0.61721800383E+02  0.65275660295E+03  0.67170647924E+03  0.12509000000E+03 0.  0.
         25    1    4    4    0    0  0.46869150677E+01  0.30342340750E+01  0.31862106277E+03  0.34234202706E+03  0.12509000000E+03 0.  0.
         25    1    4    4    0    0  0.70421824879E+02  0.58687566308E+02  0.36548643963E+03  0.39702809662E+03  0.12509000000E+03 0.  0.
<mgrwt>
<rscale>  2 0.45158780E+03</rscale>
<asrwt>0</asrwt>
<pdfrwt beam="1">  1       21 0.20205443E+00 0.45158780E+03</pdfrwt>
<pdfrwt beam="2">  1       21 0.54568022E-02 0.45158780E+03</pdfrwt>
<totfact> 0.26740370E+04</totfact>
</mgrwt>
</event>
<event>
 7    0  0.4709932E-002  0.4521249E+03  0.7546771E-02  0.1027090E+00
         21   -1    0    0  502  501  0.00000000000E+00  0.00000000000E+00  0.66942632316E+02  0.66942632316E+02  0.00000000000E+00 0. -1.
         21   -1    0    0  501  502 -0.00000000000E+00 -0.00000000000E+00 -0.76340327361E+03  0.76340327361E+03  0.00000000000E+00 0. -1.
      99926    2    1    2    0    0  0.71054273576E-14  0.00000000000E+00 -0.69646064130E+03  0.83034590593E+03  0.45212487060E+03 0.  0.
      99925    2    3    3    0    0 -0.55672678469E+02  0.53218211936E+02 -0.58477932395E+03  0.64581447242E+03  0.26301682428E+03 0.  0.
         25    1    4    4    0    0 -0.22485714916E+02 -0.12127811685E+02 -0.30666300469E+03  0.33217826199E+03  0.12509000000E+03 0.  0.
         25    1    3    3    0    0  0.55672678469E+02 -0.53218211936E+02 -0.11168131734E+03  0.18453143351E+03  0.12509000000E+03 0.  0.
         25    1    4    4    0    0 -0.33186963552E+02  0.65346023621E+02 -0.27811631926E+03  0.31363621043E+03  0.12509000000E+03 0.  0.
<mgrwt>
<rscale>  2 0.45212487E+03</rscale>
<asrwt>0</asrwt>
<pdfrwt beam="1">  1       21 0.98445042E-02 0.45212487E+03</pdfrwt>
<pdfrwt beam="2">  1       21 0.11226519E+00 0.45212487E+03</pdfrwt>
<totfact> 0.47391847E+04</totfact>
</mgrwt>
</event>
<event>
 7    0  0.4709932E-002  0.4580828E+03  0.7546771E-02  0.1025339E+00
         21   -1    0    0  502  501  0.00000000000E+00  0.00000000000E+00  0.13841399188E+03  0.13841399188E+03  0.00000000000E+00 0.  1.
         21   -1    0    0  501  502 -0.00000000000E+00 -0.00000000000E+00 -0.37900773673E+03  0.37900773673E+03  0.00000000000E+00 0.  1.
      99926    2    1    2    0    0  0.00000000000E+00  0.00000000000E+00 -0.24059374484E+03  0.51742172861E+03  0.45808284751E+03 0.  0.
      99925    2    3    3    0    0 -0.75798164249E+02 -0.85867155673E+02 -0.17164680842E+03  0.33433781815E+03  0.26306010659E+03 0.  0.
         25    1    4    4    0    0 -0.38475940903E+02 -0.80116549322E+02 -0.69353991186E+02  0.16839401325E+03  0.12509000000E+03 0.  0.
         25    1    3    3    0    0  0.75798164249E+02  0.85867155673E+02 -0.68946936425E+02  0.18308391046E+03  0.12509000000E+03 0.  0.
         25    1    4    4    0    0 -0.37322223346E+02 -0.57506063509E+01 -0.10229281723E+03  0.16594380491E+03  0.12509000000E+03 0.  0.
<mgrwt>
<rscale>  2 0.45808285E+03</rscale>
<asrwt>0</asrwt>
<pdfrwt beam="1">  1       21 0.20354999E-01 0.45808285E+03</pdfrwt>
<pdfrwt beam="2">  1       21 0.55736432E-01 0.45808285E+03</pdfrwt>
<totfact> 0.62519847E+04</totfact>
</mgrwt>
</event>
<event>
 7    0  0.4709932E-002  0.4556265E+03  0.7546771E-02  0.1026057E+00
         21   -1    0    0  502  501  0.00000000000E+00  0.00000000000E+00  0.31212962439E+03  0.31212962439E+03  0.00000000000E+00 0. -1.
         21   -1    0    0  501  502 -0.00000000000E+00 -0.00000000000E+00 -0.16627348980E+03  0.16627348980E+03  0.00000000000E+00 0. -1.
      99926    2    1    2    0    0  0.00000000000E+00 -0.35527136788E-14  0.14585613459E+03  0.47840311420E+03  0.45562652214E+03 0.  0.
      99925    2    3    3    0    0 -0.79473642157E+02  0.31069407676E+02  0.12720967210E+02  0.27677511816E+03  0.26298531353E+03 0.  0.
         25    1    4    4    0    0 -0.21206232456E+02  0.46093865301E+02 -0.12960116517E+02  0.13560907578E+03  0.12509000000E+03 0.  0.
         25    1    3    3    0    0  0.79473642157E+02 -0.31069407676E+02  0.13313516738E+03  0.20162799604E+03  0.12509000000E+03 0.  0.
         25    1    4    4    0    0 -0.58267409701E+02 -0.15024457625E+02  0.25681083727E+02  0.14116604238E+03  0.12509000000E+03 0.  0.
<mgrwt>
<rscale>  2 0.45562652E+03</rscale>
<asrwt>0</asrwt>
<pdfrwt beam="1">  1       21 0.45901415E-01 0.45562652E+03</pdfrwt>
<pdfrwt beam="2">  1       21 0.24451984E-01 0.45562652E+03</pdfrwt>
<totfact> 0.66485297E+04</totfact>
</mgrwt>
</event>
<event>
 7    0  0.4709932E-002  0.4604339E+03  0.7546771E-02  0.1024655E+00
         21   -1    0    0  502  501  0.00000000000E+00  0.00000000000E+00  0.35780187180E+03  0.35780187180E+03  0.00000000000E+00 0.  1.
         21   -1    0    0  501  502 -0.00000000000E+00 -0.00000000000E+00 -0.14812622709E+03  0.14812622709E+03  0.00000000000E+00 0.  1.
      99926    2    1    2    0    0  0.71054273576E-14  0.00000000000E+00  0.20967564471E+03  0.50592809889E+03  0.46043388805E+03 0.  0.
      99925    2    3    3    0    0 -0.55485443323E+02  0.16709212279E+02  0.24450031500E+03  0.36373774072E+03  0.26299602239E+03 0.  0.
         25    1    4    4    0    0 -0.43940887568E+02  0.41262910914E+02  0.15158852665E+03  0.20557241773E+03  0.12509000000E+03 0.  0.
         25    1    3    3    0    0  0.55485443323E+02 -0.16709212279E+02 -0.34824670288E+02  0.14219035817E+03  0.12509000000E+03 0.  0.
         25    1    4    4    0    0 -0.11544555755E+02 -0.24553698635E+02  0.92911788347E+02  0.15816532299E+03  0.12509000000E+03 0.  0.
<mgrwt>
<rscale>  2 0.46043389E+03</rscale>
<asrwt>0</asrwt>
<pdfrwt beam="1">  1       21 0.52617922E-01 0.46043389E+03</pdfrwt>
<pdfrwt beam="2">  1       21 0.21783269E-01 0.46043389E+03</pdfrwt>
<totfact> 0.62132688E+04</totfact>
</mgrwt>
</event>
<event>
 7    0  0.4709932E-002  0.4511398E+03  0.7546771E-02  0.1027383E+00
         21   -1    0    0  502  501  0.00000000000E+00  0.00000000000E+00  0.79818424234E+02  0.79818424234E+02  0.00000000000E+00 0.  1.
         21   -1    0    0  501  502 -0.00000000000E+00 -0.00000000000E+00 -0.63746906543E+03  0.63746906543E+03  0.00000000000E+00 0.  1.
      99926    2    1    2    0    0  0.00000000000E+00  0.00000000000E+00 -0.55765064119E+03  0.71728748966E+03  0.45113978455E+03 0.  0.
      99925    2    3    3    0    0 -0.16948666728E+02 -0.94486474460E+02 -0.26753086512E+03  0.38708763544E+03  0.26277199729E+03 0.  0.
         25    1    4    4    0    0 -0.20523956382E+02 -0.75034777025E+02 -0.10431502395E+03  0.18050092208E+03  0.12509000000E+03 0.  0.
         25    1    3    3    0    0  0.16948666728E+02  0.94486474460E+02 -0.29011977607E+03  0.33019985422E+03  0.12509000000E+03 0.  0.
         25    1    4    4    0    0  0.35752896533E+01 -0.19451697436E+02 -0.16321584117E+03  0.20658671336E+03  0.12509000000E+03 0.  0.
<mgrwt>
<rscale>  2 0.45113978E+03</rscale>
<asrwt>0</asrwt>
<pdfrwt beam="1">  1       21 0.11738004E-01 0.45113978E+03</pdfrwt>
<pdfrwt beam="2">  1       21 0.93745450E-01 0.45113978E+03</pdfrwt>
<totfact> 0.53583018E+04</totfact>
</mgrwt>
</event>
<event>
 7    0  0.4709932E-002  0.4499591E+03  0.7546771E-02  0.1027734E+00
         21   -1    0    0  502  501  0.00000000000E+00  0.00000000000E+00  0.94628232431E+03  0.94628232431E+03  0.00000000000E+00 0. -1.
         21   -1    0    0  501  502 -0.00000000000E+00 -0.00000000000E+00 -0.53489114485E+02  0.53489114485E+02  0.00000000000E+00 0. -1.
      99926    2    1    2    0    0  0.00000000000E+00  0.00000000000E+00  0.89279320983E+03  0.99977143880E+03  0.44995912517E+03 0.  0.
      99925    2    3    3    0    0 -0.63384993793E+02 -0.64352649496E+02  0.43125607039E+03  0.51312684557E+03  0.26297992407E+03 0.  0.
         25    1    4    4    0    0 -0.41801987710E+02 -0.58640813154E+02  0.28438744837E+03  0.31891986460E+03  0.12509000000E+03 0.  0.
         25    1    4    4    0    0 -0.21583006083E+02 -0.57118363413E+01  0.14686862202E+03  0.19420698098E+03  0.12509000000E+03 0.  0.
         25    1    3    3    0    0  0.63384993793E+02  0.64352649496E+02  0.46153713943E+03  0.48664459322E+03  0.12509000000E+03 0.  0.
<mgrwt>
<rscale>  2 0.44995913E+03</rscale>
<asrwt>0</asrwt>
<pdfrwt beam="1">  1       21 0.13915916E+00 0.44995913E+03</pdfrwt>
<pdfrwt beam="2">  1       21 0.78660468E-02 0.44995913E+03</pdfrwt>
<totfact> 0.40756714E+04</totfact>
</mgrwt>
</event>
<event>
 7    0  0.4709932E-002  0.4892704E+03  0.7546771E-02  0.1016618E+00
         21   -1    0    0  502  501  0.00000000000E+00  0.00000000000E+00  0.38097004245E+03  0.38097004245E+03  0.00000000000E+00 0.  1.
         21   -1    0    0  501  502 -0.00000000000E+00 -0.00000000000E+00 -0.15708944372E+03  0.15708944372E+03  0.00000000000E+00 0.  1.
      99926    2    1    2    0    0  0.71054273576E-14 -0.35527136788E-14  0.22388059873E+03  0.53805948617E+03  0.48927036306E+03 0.  0.
      99925    2    3    3    0    0  0.62290463752E+02 -0.10988832181E+02 -0.38771690529E+01  0.27062357760E+03  0.26309928165E+03 0.  0.
         25    1    4    4    0    0 -0.84552965423E+01  0.64537952104E+01  0.44462611615E+01  0.12562014508E+03  0.12509000000E+03 0.  0.
         25    1    3    3    0    0 -0.62290463752E+02  0.10988832181E+02  0.22775776778E+03  0.26743590857E+03  0.12509000000E+03 0.  0.
         25    1    4    4    0    0  0.70745760295E+02 -0.17442627391E+02 -0.83234302144E+01  0.14500343251E+03  0.12509000000E+03 0.  0.
<mgrwt>
<rscale>  2 0.48927036E+03</rscale>
<asrwt>0</asrwt>
<pdfrwt beam="1">  1       21 0.56025006E-01 0.48927036E+03</pdfrwt>
<pdfrwt beam="2">  1       21 0.23101389E-01 0.48927036E+03</pdfrwt>
<totfact> 0.48178391E+04</totfact>
</mgrwt>
</event>
<event>
 7    0  0.4709932E-002  0.4689009E+03  0.7546771E-02  0.1022231E+00
         21   -1    0    0  502  501  0.00000000000E+00  0.00000000000E+00  0.10615641248E+04  0.10615641248E+04  0.00000000000E+00 0.  1.
         21   -1    0    0  501  502 -0.00000000000E+00 -0.00000000000E+00 -0.51779275918E+02  0.51779275918E+02  0.00000000000E+00 0.  1.
      99926    2    1    2    0    0  0.00000000000E+00  0.00000000000E+00  0.10097848488E+04  0.11133434007E+04  0.46890093504E+03 0.  0.
      99925    2    3    3    0    0 -0.73193068755E+02  0.83036398735E+02  0.48617711992E+03  0.56373915150E+03  0.26302351638E+03 0.  0.
         25    1    4    4    0    0 -0.76111975540E+02  0.45922578590E+02  0.23479018311E+03  0.28049216429E+03  0.12509000000E+03 0.  0.
         25    1    3    3    0    0  0.73193068755E+02 -0.83036398735E+02  0.52360772891E+03  0.54960424917E+03  0.12509000000E+03 0.  0.
         25    1    4    4    0    0  0.29189067850E+01  0.37113820144E+02  0.25138693681E+03  0.28324698721E+03  0.12509000000E+03 0.  0.
<mgrwt>
<rscale>  2 0.46890094E+03</rscale>
<asrwt>0</asrwt>
<pdfrwt beam="1">  1       21 0.15611236E+00 0.46890094E+03</pdfrwt>
<pdfrwt beam="2">  1       21 0.76146001E-02 0.46890094E+03</pdfrwt>
<totfact> 0.31477470E+04</totfact>
</mgrwt>
</event>
<event>
 7    0  0.4709932E-002  0.4510102E+03  0.7546771E-02  0.1027421E+00
         21   -1    0    0  502  501  0.00000000000E+00  0.00000000000E+00  0.10989993697E+04  0.10989993697E+04  0.00000000000E+00 0. -1.
         21   -1    0    0  501  502 -0.00000000000E+00 -0.00000000000E+00 -0.46271677137E+02  0.46271677137E+02  0.00000000000E+00 0. -1.
      99926    2    1    2    0    0  0.00000000000E+00  0.00000000000E+00  0.10527276926E+04  0.11452710468E+04  0.45101017287E+03 0.  0.
      99925    2    3    3    0    0  0.32967273990E+02 -0.34550267791E+02  0.91473463706E+03  0.95299480382E+03  0.26301915846E+03 0.  0.
         25    1    3    3    0    0 -0.32967273990E+02  0.34550267791E+02  0.13799305549E+03  0.19227624300E+03  0.12509000000E+03 0.  0.
         25    1    4    4    0    0  0.22107720288E+02  0.22414567094E+02  0.41456396681E+03  0.43416811812E+03  0.12509000000E+03 0.  0.
         25    1    4    4    0    0  0.10859553701E+02 -0.56964834885E+02  0.50017067025E+03  0.51882668570E+03  0.12509000000E+03 0.  0.
<mgrwt>
<rscale>  2 0.45101017E+03</rscale>
<asrwt>0</asrwt>
<pdfrwt beam="1">  1       21 0.16161754E+00 0.45101017E+03</pdfrwt>
<pdfrwt beam="2">  1       21 0.68046591E-02 0.45101017E+03</pdfrwt>
<totfact> 0.35016962E+04</totfact>
</mgrwt>
</event>
<event>
 7    0  0.4709932E-002  0.4555656E+03  0.7546771E-02  0.1026075E+00
         21   -1    0    0  502  501  0.00000000000E+00  0.00000000000E+00  0.33683009743E+03  0.33683009743E+03  0.00000000000E+00 0.  1.
         21   -1    0    0  501  502 -0.00000000000E+00 -0.00000000000E+00 -0.15403911689E+03  0.15403911689E+03  0.00000000000E+00 0.  1.
      99926    2    1    2    0    0  0.00000000000E+00 -0.35527136788E-14  0.18279098054E+03  0.49086921432E+03  0.45556562974E+03 0.  0.
      99925    2    3    3    0    0 -0.44531304607E+02  0.26836260845E+02  0.22382621048E+03  0.34932551018E+03  0.26311008642E+03 0.  0.
         25    1    4    4    0    0 -0.32231609998E+02 -0.15061983412E+02  0.14659103189E+03  0.19596473856E+03  0.12509000000E+03 0.  0.
         25    1    4    4    0    0 -0.12299694609E+02  0.41898244258E+02  0.77235178593E+02  0.15336077162E+03  0.12509000000E+03 0.  0.
         25    1    3    3    0    0  0.44531304607E+02 -0.26836260845E+02 -0.41035229940E+02  0.14154370414E+03  0.12509000000E+03 0.  0.
<mgrwt>
<rscale>  2 0.45556563E+03</rscale>
<asrwt>0</asrwt>
<pdfrwt beam="1">  1       21 0.49533838E-01 0.45556563E+03</pdfrwt>
<pdfrwt beam="2">  1       21 0.22652811E-01 0.45556563E+03</pdfrwt>
<totfact> 0.65621845E+04</totfact>
</mgrwt>
</event>
<event>
 7    0  0.4709932E-002  0.4081006E+03  0.7546771E-02  0.1041010E+00
         21   -1    0    0  502  501  0.00000000000E+00  0.00000000000E+00  0.67981201821E+02  0.67981201821E+02  0.00000000000E+00 0. -1.
         21   -1    0    0  501  502 -0.00000000000E+00 -0.00000000000E+00 -0.61247116684E+03  0.61247116684E+03  0.00000000000E+00 0. -1.
      99926    2    1    2    0    0  0.00000000000E+00 -0.71054273576E-14 -0.54448996501E+03  0.68045236866E+03  0.40810060526E+03 0.  0.
      99925    2    3    3    0    0  0.54782991655E+01  0.56409604682E+02 -0.32887244709E+03  0.42481497429E+03  0.26286616493E+03 0.  0.
         25    1    3    3    0    0 -0.54782991655E+01 -0.56409604682E+02 -0.21561751793E+03  0.25563739437E+03  0.12509000000E+03 0.  0.
         25    1    4    4    0    0  0.92998796400E+01  0.16379723463E+02 -0.10141398869E+03  0.16213293405E+03  0.12509000000E+03 0.  0.
         25    1    4    4    0    0 -0.38215804744E+01  0.40029881219E+02 -0.22745845839E+03  0.26268204023E+03  0.12509000000E+03 0.  0.
<mgrwt>
<rscale>  2 0.40810061E+03</rscale>
<asrwt>0</asrwt>
<pdfrwt beam="1">  1       21 0.99972355E-02 0.40810061E+03</pdfrwt>
<pdfrwt beam="2">  1       21 0.90069290E-01 0.40810061E+03</pdfrwt>
<totfact> 0.79521493E+04</totfact>
</mgrwt>
</event>
<event>
 7    0  0.4709932E-002  0.4615010E+03  0.7546771E-02  0.1024347E+00
         21   -1    0    0  502  501  0.00000000000E+00  0.00000000000E+00  0.85675993208E+03  0.85675993208E+03  0.00000000000E+00 0. -1.
         21   -1    0    0  501  502 -0.00000000000E+00 -0.00000000000E+00 -0.62147850087E+02  0.62147850087E+02  0.00000000000E+00 0. -1.
      99926    2    1    2    0    0  0.00000000000E+00  0.14210854715E-13  0.79461208199E+03  0.91890778217E+03  0.46150097647E+03 0.  0.
      99925    2    3    3    0    0 -0.27958264714E+02 -0.10514752441E+03  0.40024362930E+03  0.49110917179E+03  0.26297450327E+03 0.  0.
         25    1    3    3    0    0  0.27958264714E+02  0.10514752441E+03  0.39436845270E+03  0.42779861037E+03  0.12509000000E+03 0.  0.
         25    1    4    4    0    0  0.16209841818E+02 -0.22029629202E+02  0.18076033174E+03  0.22151719835E+03  0.12509000000E+03 0.  0.
         25    1    4    4    0    0 -0.44168106531E+02 -0.83117895208E+02  0.21948329756E+03  0.26959197344E+03  0.12509000000E+03 0.  0.
<mgrwt>
<rscale>  2 0.46150098E+03</rscale>
<asrwt>0</asrwt>
<pdfrwt beam="1">  1       21 0.12599410E+00 0.46150098E+03</pdfrwt>
<pdfrwt beam="2">  1       21 0.91393902E-02 0.46150098E+03</pdfrwt>
<totfact> 0.40334425E+04</totfact>
</mgrwt>
</event>
<event>
 7    0  0.4709932E-002  0.4531295E+03  0.7546771E-02  0.1026793E+00
         21   -1    0    0  502  501  0.00000000000E+00  0.00000000000E+00  0.82537292446E+02  0.82537292446E+02  0.00000000000E+00 0.  1.
         21   -1    0    0  501  502 -0.00000000000E+00 -0.00000000000E+00 -0.62191991736E+03  0.62191991736E+03  0.00000000000E+00 0.  1.
      99926    2    1    2    0    0  0.00000000000E+00  0.00000000000E+00 -0.53938262491E+03  0.70445720980E+03  0.45312950068E+03 0.  0.
      99925    2    3    3    0    0 -0.20782088937E+02  0.50043849830E+02 -0.49122197795E+03  0.55987768794E+03  0.26311159554E+03 0.  0.
         25    1    4    4    0    0  0.22666836052E+01  0.59049889091E+02 -0.29550325984E+03  0.32628470993E+03  0.12509000000E+03 0.  0.
         25    1    4    4    0    0 -0.23048772542E+02 -0.90060392612E+01 -0.19571871811E+03  0.23359297802E+03  0.12509000000E+03 0.  0.
         25    1    3    3    0    0  0.20782088937E+02 -0.50043849830E+02 -0.48160646963E+02  0.14457952186E+03  0.12509000000E+03 0.  0.
<mgrwt>
<rscale>  2 0.45312950E+03</rscale>
<asrwt>0</asrwt>
<pdfrwt beam="1">  1       21 0.12137837E-01 0.45312950E+03</pdfrwt>
<pdfrwt beam="2">  1       21 0.91458810E-01 0.45312950E+03</pdfrwt>
<totfact> 0.53443910E+04</totfact>
</mgrwt>
</event>
<event>
 7    0  0.4709932E-002  0.4656001E+03  0.7546771E-02  0.1023169E+00
         21   -1    0    0  502  501  0.00000000000E+00  0.00000000000E+00  0.99669495876E+02  0.99669495876E+02  0.00000000000E+00 0. -1.
         21   -1    0    0  501  502 -0.00000000000E+00 -0.00000000000E+00 -0.54375581793E+03  0.54375581793E+03  0.00000000000E+00 0. -1.
      99926    2    1    2    0    0  0.00000000000E+00  0.29976021665E-14 -0.44408632205E+03  0.64342531380E+03  0.46560012136E+03 0.  0.
      99925    2    3    3    0    0 -0.10090120676E+03  0.98955356901E+00 -0.37396836536E+03  0.46807974445E+03  0.26280082978E+03 0.  0.
         25    1    4    4    0    0 -0.21736952006E+02 -0.22387736044E+02 -0.14087455846E+03  0.19096296795E+03  0.12509000000E+03 0.  0.
         25    1    4    4    0    0 -0.79164254753E+02  0.23377289613E+02 -0.23309380690E+03  0.27711677650E+03  0.12509000000E+03 0.  0.
         25    1    3    3    0    0  0.10090120676E+03 -0.98955356901E+00 -0.70117956690E+02  0.17534556935E+03  0.12509000000E+03 0.  0.
<mgrwt>
<rscale>  2 0.46560012E+03</rscale>
<asrwt>0</asrwt>
<pdfrwt beam="1">  1       21 0.14657279E-01 0.46560012E+03</pdfrwt>
<pdfrwt beam="2">  1       21 0.79964089E-01 0.46560012E+03</pdfrwt>
<totfact> 0.51625946E+04</totfact>
</mgrwt>
</event>
<event>
 7    0  0.4709932E-002  0.4512652E+03  0.7546771E-02  0.1027345E+00
         21   -1    0    0  502  501  0.00000000000E+00  0.00000000000E+00  0.11514177592E+03  0.11514177592E+03  0.00000000000E+00 0. -1.
         21   -1    0    0  501  502 -0.00000000000E+00 -0.00000000000E+00 -0.44215121481E+03  0.44215121481E+03  0.00000000000E+00 0. -1.
      99926    2    1    2    0    0  0.35527136788E-14  0.00000000000E+00 -0.32700943889E+03  0.55729299073E+03  0.45126522622E+03 0.  0.
      99925    2    3    3    0    0  0.27697133220E+02 -0.34238256418E+02 -0.82692428658E+02  0.27930432373E+03  0.26312255340E+03 0.  0.
         25    1    4    4    0    0  0.21588333238E+02 -0.31065987682E+02 -0.81506668276E+02  0.15401946889E+03  0.12509000000E+03 0.  0.
         25    1    4    4    0    0  0.61087999813E+01 -0.31722687369E+01 -0.11857603816E+01  0.12528485485E+03  0.12509000000E+03 0.  0.
         25    1    3    3    0    0 -0.27697133220E+02  0.34238256418E+02 -0.24431701023E+03  0.27798866700E+03  0.12509000000E+03 0.  0.
<mgrwt>
<rscale>  2 0.45126523E+03</rscale>
<asrwt>0</asrwt>
<pdfrwt beam="1">  1       21 0.16932614E-01 0.45126523E+03</pdfrwt>
<pdfrwt beam="2">  1       21 0.65022239E-01 0.45126523E+03</pdfrwt>
<totfact> 0.63234709E+04</totfact>
</mgrwt>
</event>
<event>
 7    0  0.4709932E-002  0.4537785E+03  0.7546771E-02  0.1026601E+00
         21   -1    0    0  502  501  0.00000000000E+00  0.00000000000E+00  0.35421409638E+03  0.35421409638E+03  0.00000000000E+00 0.  1.
         21   -1    0    0  501  502 -0.00000000000E+00 -0.00000000000E+00 -0.14533226281E+03  0.14533226281E+03  0.00000000000E+00 0.  1.
      99926    2    1    2    0    0 -0.14210854715E-13  0.00000000000E+00  0.20888183357E+03  0.49954635919E+03  0.45377851930E+03 0.  0.
      99925    2    3    3    0    0  0.93549331058E+02 -0.31351227951E+02  0.73006102979E+02  0.29015653350E+03  0.26291927664E+03 0.  0.
         25    1    4    4    0    0  0.24481922131E+02 -0.45528610608E+02  0.18691516080E+02  0.13663491416E+03  0.12509000000E+03 0.  0.
         25    1    4    4    0    0  0.69067408927E+02  0.14177382657E+02  0.54314586899E+02  0.15352161934E+03  0.12509000000E+03 0.  0.
         25    1    3    3    0    0 -0.93549331058E+02  0.31351227951E+02  0.13587573059E+03  0.20938982568E+03  0.12509000000E+03 0.  0.
<mgrwt>
<rscale>  2 0.45377852E+03</rscale>
<asrwt>0</asrwt>
<pdfrwt beam="1">  1       21 0.52090308E-01 0.45377852E+03</pdfrwt>
<pdfrwt beam="2">  1       21 0.21372392E-01 0.45377852E+03</pdfrwt>
<totfact> 0.65939586E+04</totfact>
</mgrwt>
</event>
<event>
 7    0  0.4709932E-002  0.4602352E+03  0.7546771E-02  0.1024713E+00
         21   -1    0    0  502  501  0.00000000000E+00  0.00000000000E+00  0.15324601946E+03  0.15324601946E+03  0.00000000000E+00 0. -1.
         21   -1    0    0  501  502 -0.00000000000E+00 -0.00000000000E+00 -0.34554966996E+03  0.34554966996E+03  0.00000000000E+00 0. -1.
      99926    2    1    2    0    0 -0.44408920985E-15  0.00000000000E+00 -0.19230365051E+03  0.49879568942E+03  0.46023520702E+03 0.  0.
      99925    2    3    3    0    0 -0.22342933444E+01 -0.11203063593E+03 -0.16063073902E+03  0.32789648849E+03  0.26297911969E+03 0.  0.
         25    1    3    3    0    0  0.22342933444E+01  0.11203063593E+03 -0.31672911488E+02  0.17089920092E+03  0.12509000000E+03 0.  0.
         25    1    4    4    0    0 -0.15759580437E+02 -0.37251323783E+02 -0.37723704937E+02  0.13677211526E+03  0.12509000000E+03 0.  0.
         25    1    4    4    0    0  0.13525287093E+02 -0.74779312150E+02 -0.12290703408E+03  0.19112437323E+03  0.12509000000E+03 0.  0.
<mgrwt>
<rscale>  2 0.46023521E+03</rscale>
<asrwt>0</asrwt>
<pdfrwt beam="1">  1       21 0.22536180E-01 0.46023521E+03</pdfrwt>
<pdfrwt beam="2">  1       21 0.50816127E-01 0.46023521E+03</pdfrwt>
<totfact> 0.62708417E+04</totfact>
</mgrwt>
</event>
<event>
 7    0  0.4709932E-002  0.4561187E+03  0.7546771E-02  0.1025913E+00
         21   -1    0    0  502  501  0.00000000000E+00  0.00000000000E+00  0.49612418230E+03  0.49612418230E+03  0.00000000000E+00 0.  1.
         21   -1    0    0  501  502 -0.00000000000E+00 -0.00000000000E+00 -0.10483477882E+03  0.10483477882E+03  0.00000000000E+00 0.  1.
      99926    2    1    2    0    0  0.00000000000E+00  0.00000000000E+00  0.39128940348E+03  0.60095896112E+03  0.45611870787E+03 0.  0.
      99925    2    3    3    0    0  0.82227526517E+02 -0.70845025046E+02  0.29276037824E+03  0.40825229126E+03  0.26302264269E+03 0.  0.
         25    1    4    4    0    0  0.33482120307E+02  0.42228874627E+01  0.15230443881E+03  0.19995758385E+03  0.12509000000E+03 0.  0.
         25    1    4    4    0    0  0.48745406210E+02 -0.75067912509E+02  0.14045593943E+03  0.20829470741E+03  0.12509000000E+03 0.  0.
         25    1    3    3    0    0 -0.82227526517E+02  0.70845025046E+02  0.98529025246E+02  0.19270666986E+03  0.12509000000E+03 0.  0.
<mgrwt>
<rscale>  2 0.45611871E+03</rscale>
<asrwt>0</asrwt>
<pdfrwt beam="1">  1       21 0.72959438E-01 0.45611871E+03</pdfrwt>
<pdfrwt beam="2">  1       21 0.15416879E-01 0.45611871E+03</pdfrwt>
<totfact> 0.58103993E+04</totfact>
</mgrwt>
</event>
<event>
 7    0  0.4709932E-002  0.4608963E+03  0.7546771E-02  0.1024522E+00
         21   -1    0    0  502  501  0.00000000000E+00  0.00000000000E+00  0.16391444065E+03  0.16391444065E+03  0.00000000000E+00 0.  1.
         21   -1    0    0  501  502 -0.00000000000E+00 -0.00000000000E+00 -0.32398821108E+03  0.32398821108E+03  0.00000000000E+00 0.  1.
      99926    2    1    2    0    0  0.00000000000E+00  0.00000000000E+00 -0.16007377043E+03  0.48790265173E+03  0.46089628506E+03 0.  0.
      99925    2    3    3    0    0 -0.71466719181E+02 -0.79774118181E+02 -0.15415397372E+03  0.32311808335E+03  0.26300274959E+03 0.  0.
         25    1    3    3    0    0  0.71466719181E+02  0.79774118181E+02 -0.59197967121E+01  0.16478456838E+03  0.12509000000E+03 0.  0.
         25    1    4    4    0    0 -0.71650996790E+02 -0.20977184630E+02 -0.82930952855E+02  0.16762744005E+03  0.12509000000E+03 0.  0.
         25    1    4    4    0    0  0.18427760901E+00 -0.58796933552E+02 -0.71223020866E+02  0.15549064330E+03  0.12509000000E+03 0.  0.
<mgrwt>
<rscale>  2 0.46089629E+03</rscale>
<asrwt>0</asrwt>
<pdfrwt beam="1">  1       21 0.24105065E-01 0.46089629E+03</pdfrwt>
<pdfrwt beam="2">  1       21 0.47645325E-01 0.46089629E+03</pdfrwt>
<totfact> 0.63122518E+04</totfact>
</mgrwt>
</event>
<event>
 7    0  0.4709932E-002  0.4495277E+03  0.7546771E-02  0.1027863E+00
         21   -1    0    0  502  501  0.00000000000E+00  0.00000000000E+00  0.10764120755E+03  0.10764120755E+03  0.00000000000E+00 0.  1.
         21   -1    0    0  501  502 -0.00000000000E+00 -0.00000000000E+00 -0.46932564744E+03  0.46932564744E+03  0.00000000000E+00 0.  1.
      99926    2    1    2    0    0 -0.35527136788E-14 -0.35527136788E-14 -0.36168443988E+03  0.57696685499E+03  0.44952766066E+03 0.  0.
      99925    2    3    3    0    0 -0.12598010268E+02  0.21509180031E+02 -0.94066234022E+02  0.28050713277E+03  0.26308637453E+03 0.  0.
         25    1    3    3    0    0  0.12598010268E+02 -0.21509180031E+02 -0.26761820586E+03  0.29645972222E+03  0.12509000000E+03 0.  0.
         25    1    4    4    0    0  0.25828225523E+02  0.31869373617E+02 -0.32932278884E+02  0.13570113228E+03  0.12509000000E+03 0.  0.
         25    1    4    4    0    0 -0.38426235791E+02 -0.10360193586E+02 -0.61133955138E+02  0.14480600049E+03  0.12509000000E+03 0.  0.
<mgrwt>
<rscale>  2 0.44952766E+03</rscale>
<asrwt>0</asrwt>
<pdfrwt beam="1">  1       21 0.15829589E-01 0.44952766E+03</pdfrwt>
<pdfrwt beam="2">  1       21 0.69018478E-01 0.44952766E+03</pdfrwt>
<totfact> 0.62791843E+04</totfact>
</mgrwt>
</event>
<event>
 7    0  0.4709932E-002  0.4621957E+03  0.7546771E-02  0.1024146E+00
         21   -1    0    0  502  501  0.00000000000E+00  0.00000000000E+00  0.36251867501E+03  0.36251867501E+03  0.00000000000E+00 0. -1.
         21   -1    0    0  501  502 -0.00000000000E+00 -0.00000000000E+00 -0.14731989003E+03  0.14731989003E+03  0.00000000000E+00 0. -1.
      99926    2    1    2    0    0  0.00000000000E+00  0.00000000000E+00  0.21519878498E+03  0.50983856503E+03  0.46219567862E+03 0.  0.
      99925    2    3    3    0    0 -0.77337777976E+02 -0.73372893931E+02  0.19481919943E+03  0.34422591735E+03  0.26300617529E+03 0.  0.
         25    1    4    4    0    0 -0.29443305948E+02 -0.24366768851E+02  0.47450139815E+02  0.13913903679E+03  0.12509000000E+03 0.  0.
         25    1    4    4    0    0 -0.47894472028E+02 -0.49006125080E+02  0.14736905962E+03  0.20508688056E+03  0.12509000000E+03 0.  0.
         25    1    3    3    0    0  0.77337777976E+02  0.73372893931E+02  0.20379585549E+02  0.16561264768E+03  0.12509000000E+03 0.  0.
<mgrwt>
<rscale>  2 0.46219568E+03</rscale>
<asrwt>0</asrwt>
<pdfrwt beam="1">  1       21 0.53311570E-01 0.46219568E+03</pdfrwt>
<pdfrwt beam="2">  1       21 0.21664690E-01 0.46219568E+03</pdfrwt>
<totfact> 0.61024372E+04</totfact>
</mgrwt>
</event>
<event>
 7    0  0.4709932E-002  0.4540190E+03  0.7546771E-02  0.1026530E+00
         21   -1    0    0  502  501  0.00000000000E+00  0.00000000000E+00  0.27719165046E+03  0.27719165046E+03  0.00000000000E+00 0. -1.
         21   -1    0    0  501  502 -0.00000000000E+00 -0.00000000000E+00 -0.18591222636E+03  0.18591222636E+03  0.00000000000E+00 0. -1.
      99926    2    1    2    0    0  0.00000000000E+00  0.00000000000E+00  0.91279424104E+02  0.46310387682E+03  0.45401901663E+03 0.  0.
      99925    2    3    3    0    0  0.85924341200E+02  0.31395665553E+02  0.12379677629E+03  0.30475752694E+03  0.26302628800E+03 0.  0.
         25    1    4    4    0    0  0.61644331866E+02  0.18149819490E+02  0.10448889278E+03  0.17519953314E+03  0.12509000000E+03 0.  0.
         25    1    3    3    0    0 -0.85924341200E+02 -0.31395665553E+02 -0.32517352186E+02  0.15834634988E+03  0.12509000000E+03 0.  0.
         25    1    4    4    0    0  0.24280009334E+02  0.13245846064E+02  0.19307883509E+02  0.12955799380E+03  0.12509000000E+03 0.  0.
<mgrwt>
<rscale>  2 0.45401902E+03</rscale>
<asrwt>0</asrwt>
<pdfrwt beam="1">  1       21 0.40763478E-01 0.45401902E+03</pdfrwt>
<pdfrwt beam="2">  1       21 0.27340033E-01 0.45401902E+03</pdfrwt>
<totfact> 0.68483709E+04</totfact>
</mgrwt>
</event>
<event>
 7    0  0.4709932E-002  0.4605587E+03  0.7546771E-02  0.1024619E+00
         21   -1    0    0  502  501  0.00000000000E+00  0.00000000000E+00  0.21236304608E+03  0.21236304608E+03  0.00000000000E+00 0. -1.
         21   -1    0    0  501  502 -0.00000000000E+00 -0.00000000000E+00 -0.24970719771E+03  0.24970719771E+03  0.00000000000E+00 0. -1.
      99926    2    1    2    0    0  0.00000000000E+00 -0.71054273576E-14 -0.37344151629E+02  0.46207024379E+03  0.46055870910E+03 0.  0.
      99925    2    3    3    0    0 -0.70024707833E+02  0.39369781247E+02  0.63798593070E+02  0.28226256239E+03  0.26296093677E+03 0.  0.
         25    1    4    4    0    0 -0.56427869356E+02  0.36940444303E+02  0.65312749763E+02  0.15640321048E+03  0.12509000000E+03 0.  0.
         25    1    3    3    0    0  0.70024707833E+02 -0.39369781247E+02 -0.10114274470E+03  0.17980768139E+03  0.12509000000E+03 0.  0.
         25    1    4    4    0    0 -0.13596838477E+02  0.24293369442E+01 -0.15141566934E+01  0.12585935192E+03  0.12509000000E+03 0.  0.
<mgrwt>
<rscale>  2 0.46055871E+03</rscale>
<asrwt>0</asrwt>
<pdfrwt beam="1">  1       21 0.31229860E-01 0.46055871E+03</pdfrwt>
<pdfrwt beam="2">  1       21 0.36721647E-01 0.46055871E+03</pdfrwt>
<totfact> 0.65095602E+04</totfact>
</mgrwt>
</event>
<event>
 7    0  0.4709932E-002  0.4564324E+03  0.7546771E-02  0.1025821E+00
         21   -1    0    0  502  501  0.00000000000E+00  0.00000000000E+00  0.10309186350E+03  0.10309186350E+03  0.00000000000E+00 0. -1.
         21   -1    0    0  501  502 -0.00000000000E+00 -0.00000000000E+00 -0.50520610709E+03  0.50520610709E+03  0.00000000000E+00 0. -1.
      99926    2    1    2    0    0 -0.14210854715E-13 -0.14210854715E-13 -0.40211424359E+03  0.60829797058E+03  0.45643242229E+03 0.  0.
      99925    2    3    3    0    0 -0.66384807140E+02 -0.92103437832E+02 -0.27623191788E+03  0.39762321200E+03  0.26250744824E+03 0.  0.
         25    1    4    4    0    0 -0.49191699192E+02 -0.84112285089E+02 -0.13765871861E+03  0.20998126269E+03  0.12509000000E+03 0.  0.
         25    1    3    3    0    0  0.66384807140E+02  0.92103437832E+02 -0.12588232571E+03  0.21067475859E+03  0.12509000000E+03 0.  0.
         25    1    4    4    0    0 -0.17193107948E+02 -0.79911527430E+01 -0.13857319927E+03  0.18764194930E+03  0.12509000000E+03 0.  0.
<mgrwt>
<rscale>  2 0.45643242E+03</rscale>
<asrwt>0</asrwt>
<pdfrwt beam="1">  1       21 0.15160568E-01 0.45643242E+03</pdfrwt>
<pdfrwt beam="2">  1       21 0.74295015E-01 0.45643242E+03</pdfrwt>
<totfact> 0.57516807E+04</totfact>
</mgrwt>
</event>
<event>
 7    0  0.4709932E-002  0.4569473E+03  0.7546771E-02  0.1025670E+00
         21   -1    0    0  502  501  0.00000000000E+00  0.00000000000E+00  0.86549508258E+03  0.86549508258E+03  0.00000000000E+00 0.  1.
         21   -1    0    0  501  502 -0.00000000000E+00 -0.00000000000E+00 -0.60312541531E+02  0.60312541531E+02  0.00000000000E+00 0.  1.
      99926    2    1    2    0    0  0.00000000000E+00  0.00000000000E+00  0.80518254105E+03  0.92580762411E+03  0.45694729724E+03 0.  0.
      99925    2    3    3    0    0 -0.11280932515E+03 -0.17340828170E+02  0.48293247234E+03  0.56177567078E+03  0.26332771081E+03 0.  0.
         25    1    3    3    0    0  0.11280932515E+03  0.17340828170E+02  0.32225006871E+03  0.36403195333E+03  0.12509000000E+03 0.  0.
         25    1    4    4    0    0 -0.41722281455E+02 -0.43435015464E+02  0.26787854696E+03  0.30171803618E+03  0.12509000000E+03 0.  0.
         25    1    4    4    0    0 -0.71087043691E+02  0.26094187293E+02  0.21505392538E+03  0.26005763460E+03  0.12509000000E+03 0.  0.
<mgrwt>
<rscale>  2 0.45694730E+03</rscale>
<asrwt>0</asrwt>
<pdfrwt beam="1">  1       21 0.12727868E+00 0.45694730E+03</pdfrwt>
<pdfrwt beam="2">  1       21 0.88694919E-02 0.45694730E+03</pdfrwt>
<totfact> 0.41500586E+04</totfact>
</mgrwt>
</event>
<event>
 7    0  0.4709932E-002  0.4609858E+03  0.7546771E-02  0.1024496E+00
         21   -1    0    0  502  501  0.00000000000E+00  0.00000000000E+00  0.86433531699E+03  0.86433531699E+03  0.00000000000E+00 0. -1.
         21   -1    0    0  501  502 -0.00000000000E+00 -0.00000000000E+00 -0.61465702379E+02  0.61465702379E+02  0.00000000000E+00 0. -1.
      99926    2    1    2    0    0  0.00000000000E+00  0.88817841970E-15  0.80286961461E+03  0.92580101937E+03  0.46098580173E+03 0.  0.
      99925    2    3    3    0    0  0.55916480855E+02 -0.56061662264E+01  0.29250483620E+03  0.39733361538E+03  0.26297688260E+03 0.  0.
         25    1    4    4    0    0  0.96019040613E+01  0.79366046359E+01  0.90551254831E+02  0.15492651195E+03  0.12509000000E+03 0.  0.
         25    1    3    3    0    0 -0.55916480855E+02  0.56061662264E+01  0.51036477842E+03  0.52846740399E+03  0.12509000000E+03 0.  0.
         25    1    4    4    0    0  0.46314576794E+02 -0.13542770862E+02  0.20195358137E+03  0.24240710343E+03  0.12509000000E+03 0.  0.
<mgrwt>
<rscale>  2 0.46098580E+03</rscale>
<asrwt>0</asrwt>
<pdfrwt beam="1">  1       21 0.12710813E+00 0.46098580E+03</pdfrwt>
<pdfrwt beam="2">  1       21 0.90390744E-02 0.46098580E+03</pdfrwt>
<totfact> 0.40219508E+04</totfact>
</mgrwt>
</event>
<event>
 7    0  0.4709932E-002  0.4442826E+03  0.7546771E-02  0.1029441E+00
         21   -1    0    0  502  501  0.00000000000E+00  0.00000000000E+00  0.24724627144E+02  0.24724627144E+02  0.00000000000E+00 0.  1.
         21   -1    0    0  501  502 -0.00000000000E+00 -0.00000000000E+00 -0.19958543702E+04  0.19958543702E+04  0.00000000000E+00 0.  1.
      99926    2    1    2    0    0  0.00000000000E+00  0.00000000000E+00 -0.19711297431E+04  0.20205789974E+04  0.44428259087E+03 0.  0.
      99925    2    3    3    0    0  0.70603594425E+02  0.35834244942E+02 -0.95475386156E+03  0.99347802800E+03  0.26301082732E+03 0.  0.
         25    1    3    3    0    0 -0.70603594425E+02 -0.35834244942E+02 -0.10163758815E+04  0.10271009694E+04  0.12509000000E+03 0.  0.
         25    1    4    4    0    0  0.21094169457E+02  0.12296337271E+02 -0.59900409415E+03  0.61241291365E+03  0.12509000000E+03 0.  0.
         25    1    4    4    0    0  0.49509424968E+02  0.23537907672E+02 -0.35574976741E+03  0.38106511435E+03  0.12509000000E+03 0.  0.
<mgrwt>
<rscale>  2 0.44428259E+03</rscale>
<asrwt>0</asrwt>
<pdfrwt beam="1">  1       21 0.36359732E-02 0.44428259E+03</pdfrwt>
<pdfrwt beam="2">  1       21 0.29350811E+00 0.44428259E+03</pdfrwt>
<totfact> 0.14549947E+04</totfact>
</mgrwt>
</event>
<event>
 7    0  0.4709932E-002  0.4535721E+03  0.7546771E-02  0.1026662E+00
         21   -1    0    0  502  501  0.00000000000E+00  0.00000000000E+00  0.49673123996E+03  0.49673123996E+03  0.00000000000E+00 0. -1.
         21   -1    0    0  501  502 -0.00000000000E+00 -0.00000000000E+00 -0.10354071060E+03  0.10354071060E+03  0.00000000000E+00 0. -1.
      99926    2    1    2    0    0  0.00000000000E+00 -0.17763568394E-14  0.39319052936E+03  0.60027195056E+03  0.45357206953E+03 0.  0.
      99925    2    3    3    0    0 -0.56874647129E+02  0.14343554547E+02  0.37374973942E+03  0.46075164574E+03  0.26298811436E+03 0.  0.
         25    1    3    3    0    0  0.56874647129E+02 -0.14343554547E+02  0.19440789935E+02  0.13952030482E+03  0.12509000000E+03 0.  0.
         25    1    4    4    0    0 -0.66852627146E+01 -0.34658074661E+01  0.12343519597E+03  0.17589900586E+03  0.12509000000E+03 0.  0.
         25    1    4    4    0    0 -0.50189384414E+02  0.17809362013E+02  0.25031454346E+03  0.28485263988E+03  0.12509000000E+03 0.  0.
<mgrwt>
<rscale>  2 0.45357207E+03</rscale>
<asrwt>0</asrwt>
<pdfrwt beam="1">  1       21 0.73048711E-01 0.45357207E+03</pdfrwt>
<pdfrwt beam="2">  1       21 0.15226575E-01 0.45357207E+03</pdfrwt>
<totfact> 0.59328059E+04</totfact>
</mgrwt>
</event>
<event>
 7    0  0.4709932E-002  0.4401303E+03  0.7546771E-02  0.1030707E+00
         21   -1    0    0  502  501  0.00000000000E+00  0.00000000000E+00  0.16623779689E+03  0.16623779689E+03  0.00000000000E+00 0. -1.
         21   -1    0    0  501  502 -0.00000000000E+00 -0.00000000000E+00 -0.29132164152E+03  0.29132164152E+03  0.00000000000E+00 0. -1.
      99926    2    1    2    0    0  0.00000000000E+00 -0.35527136788E-14 -0.12508384463E+03  0.45755943841E+03  0.44013028922E+03 0.  0.
      99925    2    3    3    0    0 -0.66156883578E+02  0.26762423149E+02 -0.90971869619E+01  0.27264493548E+03  0.26298201743E+03 0.  0.
         25    1    4    4    0    0 -0.59289620023E+02  0.88429401908E+01 -0.35904761927E+02  0.14328334398E+03  0.12509000000E+03 0.  0.
         25    1    4    4    0    0 -0.68672635548E+01  0.17919482959E+02  0.26807574965E+02  0.12936159149E+03  0.12509000000E+03 0.  0.
         25    1    3    3    0    0  0.66156883578E+02 -0.26762423149E+02 -0.11598665767E+03  0.18491450293E+03  0.12509000000E+03 0.  0.
<mgrwt>
<rscale>  2 0.44013029E+03</rscale>
<asrwt>0</asrwt>
<pdfrwt beam="1">  1       21 0.24446735E-01 0.44013029E+03</pdfrwt>
<pdfrwt beam="2">  1       21 0.42841418E-01 0.44013029E+03</pdfrwt>
<totfact> 0.77069964E+04</totfact>
</mgrwt>
</event>
<event>
 7    0  0.4709932E-002  0.4558300E+03  0.7546771E-02  0.1025998E+00
         21   -1    0    0  502  501  0.00000000000E+00  0.00000000000E+00  0.93195737138E+02  0.93195737138E+02  0.00000000000E+00 0. -1.
         21   -1    0    0  501  502 -0.00000000000E+00 -0.00000000000E+00 -0.55737797086E+03  0.55737797086E+03  0.00000000000E+00 0. -1.
      99926    2    1    2    0    0  0.35527136788E-14  0.00000000000E+00 -0.46418223372E+03  0.65057370800E+03  0.45583001594E+03 0.  0.
      99925    2    3    3    0    0  0.30474841056E+02 -0.10876381811E+03 -0.27037787057E+03  0.39373538659E+03  0.26299254303E+03 0.  0.
         25    1    4    4    0    0  0.86049389456E+01 -0.88165744938E+02 -0.11279624690E+03  0.19030960293E+03  0.12509000000E+03 0.  0.
         25    1    3    3    0    0 -0.30474841056E+02  0.10876381811E+03 -0.19380436315E+03  0.25683832141E+03  0.12509000000E+03 0.  0.
         25    1    4    4    0    0  0.21869902111E+02 -0.20598073171E+02 -0.15758162367E+03  0.20342578365E+03  0.12509000000E+03 0.  0.
<mgrwt>
<rscale>  2 0.45583002E+03</rscale>
<asrwt>0</asrwt>
<pdfrwt beam="1">  1       21 0.13705256E-01 0.45583002E+03</pdfrwt>
<pdfrwt beam="2">  1       21 0.81967347E-01 0.45583002E+03</pdfrwt>
<totfact> 0.55305428E+04</totfact>
</mgrwt>
</event>
<event>
 7    0  0.4709932E-002  0.4598422E+03  0.7546771E-02  0.1024827E+00
         21   -1    0    0  502  501  0.00000000000E+00  0.00000000000E+00  0.16528522842E+04  0.16528522842E+04  0.00000000000E+00 0. -1.
         21   -1    0    0  501  502 -0.00000000000E+00 -0.00000000000E+00 -0.31983331362E+02  0.31983331362E+02  0.00000000000E+00 0. -1.
      99926    2    1    2    0    0  0.00000000000E+00  0.71054273576E-14  0.16208689529E+04  0.16848356156E+04  0.45984224381E+03 0.  0.
      99925    2    3    3    0    0 -0.46937743671E+02 -0.35022183663E+02  0.13894521375E+04  0.14153343064E+04  0.26299097187E+03 0.  0.
         25    1    4    4    0    0 -0.30148308080E+02 -0.51943979441E+02  0.83463537824E+03  0.84609149635E+03  0.12509000000E+03 0.  0.
         25    1    4    4    0    0 -0.16789435591E+02  0.16921795778E+02  0.55481675928E+03  0.56924281005E+03  0.12509000000E+03 0.  0.
         25    1    3    3    0    0  0.46937743671E+02  0.35022183663E+02  0.23141681535E+03  0.26950130919E+03  0.12509000000E+03 0.  0.
<mgrwt>
<rscale>  2 0.45984224E+03</rscale>
<asrwt>0</asrwt>
<pdfrwt beam="1">  1       21 0.24306645E+00 0.45984224E+03</pdfrwt>
<pdfrwt beam="2">  1       21 0.47034322E-02 0.45984224E+03</pdfrwt>
<totfact> 0.18859872E+04</totfact>
</mgrwt>
</event>
<event>
 7    0  0.4709932E-002  0.4448639E+03  0.7546771E-02  0.1029265E+00
         21   -1    0    0  502  501  0.00000000000E+00  0.00000000000E+00  0.21459516865E+04  0.21459516865E+04  0.00000000000E+00 0.  1.
         21   -1    0    0  501  502 -0.00000000000E+00 -0.00000000000E+00 -0.23055496695E+02  0.23055496695E+02  0.00000000000E+00 0.  1.
      99926    2    1    2    0    0  0.00000000000E+00  0.00000000000E+00  0.21228961898E+04  0.21690071832E+04  0.44486394332E+03 0.  0.
      99925    2    3    3    0    0  0.71570576573E+02 -0.72902886569E+02  0.13894548944E+04  0.14179939874E+04  0.26397891304E+03 0.  0.
         25    1    4    4    0    0  0.26178451898E+02 -0.53151548887E+02  0.51607397588E+03  0.53431288135E+03  0.12509000000E+03 0.  0.
         25    1    4    4    0    0  0.45392124675E+02 -0.19751337682E+02  0.87338091849E+03  0.88368110606E+03  0.12509000000E+03 0.  0.
         25    1    3    3    0    0 -0.71570576573E+02  0.72902886569E+02  0.73344129544E+03  0.75101319580E+03  0.12509000000E+03 0.  0.
<mgrwt>
<rscale>  2 0.44486394E+03</rscale>
<asrwt>0</asrwt>
<pdfrwt beam="1">  1       21 0.31558099E+00 0.44486394E+03</pdfrwt>
<pdfrwt beam="2">  1       21 0.33905157E-02 0.44486394E+03</pdfrwt>
<totfact> 0.12063654E+04</totfact>
</mgrwt>
</event>
<event>
 7    0  0.4709932E-002  0.4597352E+03  0.7546771E-02  0.1024858E+00
         21   -1    0    0  502  501  0.00000000000E+00  0.00000000000E+00  0.71887790941E+03  0.71887790941E+03  0.00000000000E+00 0. -1.
         21   -1    0    0  501  502 -0.00000000000E+00 -0.00000000000E+00 -0.73502208417E+02  0.73502208417E+02  0.00000000000E+00 0. -1.
      99926    2    1    2    0    0  0.00000000000E+00  0.17763568394E-14  0.64537570099E+03  0.79238011782E+03  0.45973520171E+03 0.  0.
      99925    2    3    3    0    0 -0.11468333034E+03  0.11261328796E+02  0.36388214542E+03  0.46349531472E+03  0.26294221272E+03 0.  0.
         25    1    4    4    0    0 -0.95231343967E+02 -0.70862524721E+01  0.22622664229E+03  0.27558161337E+03  0.12509000000E+03 0.  0.
         25    1    3    3    0    0  0.11468333034E+03 -0.11261328796E+02  0.28149355557E+03  0.32888480310E+03  0.12509000000E+03 0.  0.
         25    1    4    4    0    0 -0.19451986372E+02  0.18347581268E+02  0.13765550313E+03  0.18791370135E+03  0.12509000000E+03 0.  0.
<mgrwt>
<rscale>  2 0.45973520E+03</rscale>
<asrwt>0</asrwt>
<pdfrwt beam="1">  1       21 0.10571734E+00 0.45973520E+03</pdfrwt>
<pdfrwt beam="2">  1       21 0.10809149E-01 0.45973520E+03</pdfrwt>
<totfact> 0.46387523E+04</totfact>
</mgrwt>
</event>
<event>
 7    0  0.4709932E-002  0.4580194E+03  0.7546771E-02  0.1025357E+00
         21   -1    0    0  502  501  0.00000000000E+00  0.00000000000E+00  0.16180480770E+03  0.16180480770E+03  0.00000000000E+00 0.  1.
         21   -1    0    0  501  502 -0.00000000000E+00 -0.00000000000E+00 -0.32412782716E+03  0.32412782716E+03  0.00000000000E+00 0.  1.
      99926    2    1    2    0    0 -0.71054273576E-14  0.00000000000E+00 -0.16232301946E+03  0.48593263486E+03  0.45801939148E+03 0.  0.
      99925    2    3    3    0    0 -0.49418581060E+02  0.10056008222E+03 -0.13300739645E+03  0.31545847217E+03  0.26318919785E+03 0.  0.
         25    1    4    4    0    0 -0.41457499309E+02  0.12877847758E+02 -0.50965041175E+02  0.14187849285E+03  0.12509000000E+03 0.  0.
         25    1    4    4    0    0 -0.79610817512E+01  0.87682234460E+02 -0.82042355272E+02  0.17357997932E+03  0.12509000000E+03 0.  0.
         25    1    3    3    0    0  0.49418581060E+02 -0.10056008222E+03 -0.29315623016E+02  0.17047416268E+03  0.12509000000E+03 0.  0.
<mgrwt>
<rscale>  2 0.45801939E+03</rscale>
<asrwt>0</asrwt>
<pdfrwt beam="1">  1       21 0.23794825E-01 0.45801939E+03</pdfrwt>
<pdfrwt beam="2">  1       21 0.47665856E-01 0.45801939E+03</pdfrwt>
<totfact> 0.64705845E+04</totfact>
</mgrwt>
</event>
<event>
 7    0  0.4709932E-002  0.3988539E+03  0.7546771E-02  0.1044177E+00
         21   -1    0    0  502  501  0.00000000000E+00  0.00000000000E+00  0.12607500868E+04  0.12607500868E+04  0.00000000000E+00 0.  1.
         21   -1    0    0  501  502 -0.00000000000E+00 -0.00000000000E+00 -0.31545596032E+02  0.31545596032E+02  0.00000000000E+00 0.  1.
      99926    2    1    2    0    0  0.00000000000E+00  0.35527136788E-14  0.12292044908E+04  0.12922956829E+04  0.39885392281E+03 0.  0.
      99925    2    3    3    0    0  0.35346322874E+02 -0.18083188494E+02  0.76571977059E+03  0.81058834618E+03  0.26296451404E+03 0.  0.
         25    1    3    3    0    0 -0.35346322874E+02  0.18083188494E+02  0.46348472021E+03  0.48170733668E+03  0.12509000000E+03 0.  0.
         25    1    4    4    0    0 -0.17787693781E+02 -0.28006190734E+02  0.35505643976E+03  0.37790651262E+03  0.12509000000E+03 0.  0.
         25    1    4    4    0    0  0.53134016655E+02  0.99230022398E+01  0.41066333083E+03  0.43268183356E+03  0.12509000000E+03 0.  0.
<mgrwt>
<rscale>  2 0.39885392E+03</rscale>
<asrwt>0</asrwt>
<pdfrwt beam="1">  1       21 0.18540439E+00 0.39885392E+03</pdfrwt>
<pdfrwt beam="2">  1       21 0.46390591E-02 0.39885392E+03</pdfrwt>
<totfact> 0.46611617E+04</totfact>
</mgrwt>
</event>
<event>
 7    0  0.4709932E-002  0.4501295E+03  0.7546771E-02  0.1027683E+00
         21   -1    0    0  502  501  0.00000000000E+00  0.00000000000E+00  0.10941500811E+04  0.10941500811E+04  0.00000000000E+00 0.  1.
         21   -1    0    0  501  502 -0.00000000000E+00 -0.00000000000E+00 -0.46295426160E+02  0.46295426160E+02  0.00000000000E+00 0.  1.
      99926    2    1    2    0    0  0.00000000000E+00 -0.71054273576E-14  0.10478546550E+04  0.11404455073E+04  0.45012951153E+03 0.  0.
      99925    2    3    3    0    0 -0.92516290205E+02 -0.56580984898E+02  0.65155334492E+03  0.71095405423E+03  0.26300804957E+03 0.  0.
         25    1    3    3    0    0  0.92516290205E+02  0.56580984898E+02  0.39630131003E+03  0.42949145304E+03  0.12509000000E+03 0.  0.
         25    1    4    4    0    0 -0.56744340530E+02  0.99395395850E+01  0.34012851567E+03  0.36695180869E+03  0.12509000000E+03 0.  0.
         25    1    4    4    0    0 -0.35771949675E+02 -0.66520524483E+02  0.31142482925E+03  0.34400224554E+03  0.12509000000E+03 0.  0.
<mgrwt>
<rscale>  2 0.45012951E+03</rscale>
<asrwt>0</asrwt>
<pdfrwt beam="1">  1       21 0.16090441E+00 0.45012951E+03</pdfrwt>
<pdfrwt beam="2">  1       21 0.68081516E-02 0.45012951E+03</pdfrwt>
<totfact> 0.35428971E+04</totfact>
</mgrwt>
</event>
<event>
 7    0  0.4709932E-002  0.4481290E+03  0.7546771E-02  0.1028281E+00
         21   -1    0    0  502  501  0.00000000000E+00  0.00000000000E+00  0.12677362626E+03  0.12677362626E+03  0.00000000000E+00 0.  1.
         21   -1    0    0  501  502 -0.00000000000E+00 -0.00000000000E+00 -0.39602014506E+03  0.39602014506E+03  0.00000000000E+00 0.  1.
      99926    2    1    2    0    0  0.17763568394E-14 -0.14210854715E-13 -0.26924651880E+03  0.52279377132E+03  0.44812904330E+03 0.  0.
      99925    2    3    3    0    0  0.11051220942E+02  0.10595995337E+03 -0.17613616667E+03  0.33393751123E+03  0.26294613706E+03 0.  0.
         25    1    4    4    0    0  0.15010706710E+02  0.83058197670E+02 -0.62448688848E+02  0.16331360126E+03  0.12509000000E+03 0.  0.
         25    1    3    3    0    0 -0.11051220942E+02 -0.10595995337E+03 -0.93110352129E+02  0.18885626009E+03  0.12509000000E+03 0.  0.
         25    1    4    4    0    0 -0.39594857679E+01  0.22901755698E+02 -0.11368747782E+03  0.17062390997E+03  0.12509000000E+03 0.  0.
<mgrwt>
<rscale>  2 0.44812904E+03</rscale>
<asrwt>0</asrwt>
<pdfrwt beam="1">  1       21 0.18643181E-01 0.44812904E+03</pdfrwt>
<pdfrwt beam="2">  1       21 0.58238255E-01 0.44812904E+03</pdfrwt>
<totfact> 0.67287270E+04</totfact>
</mgrwt>
</event>
<event>
 7    0  0.4709932E-002  0.4494329E+03  0.7546771E-02  0.1027891E+00
         21   -1    0    0  502  501  0.00000000000E+00  0.00000000000E+00  0.36264867671E+03  0.36264867671E+03  0.00000000000E+00 0.  1.
         21   -1    0    0  501  502 -0.00000000000E+00 -0.00000000000E+00 -0.13924628302E+03  0.13924628302E+03  0.00000000000E+00 0.  1.
      99926    2    1    2    0    0  0.35527136788E-14  0.14210854715E-13  0.22340239369E+03  0.50189495973E+03  0.44943288831E+03 0.  0.
      99925    2    3    3    0    0  0.23672973525E+02  0.10342459936E+03  0.12023926139E+03  0.30812396759E+03  0.26310804244E+03 0.  0.
         25    1    3    3    0    0 -0.23672973525E+02 -0.10342459936E+03  0.10316313230E+03  0.19377099214E+03  0.12509000000E+03 0.  0.
         25    1    4    4    0    0 -0.95929300397E+01  0.64133583026E+02  0.96524421902E+02  0.17079113824E+03  0.12509000000E+03 0.  0.
         25    1    4    4    0    0  0.33265903565E+02  0.39291016337E+02  0.23714839485E+02  0.13733282935E+03  0.12509000000E+03 0.  0.
<mgrwt>
<rscale>  2 0.44943289E+03</rscale>
<asrwt>0</asrwt>
<pdfrwt beam="1">  1       21 0.53330688E-01 0.44943289E+03</pdfrwt>
<pdfrwt beam="2">  1       21 0.20477395E-01 0.44943289E+03</pdfrwt>
<totfact> 0.68097420E+04</totfact>
</mgrwt>
</event>
<event>
 7    0  0.4709932E-002  0.4285212E+03  0.7546771E-02  0.1034328E+00
         21   -1    0    0  502  501  0.00000000000E+00  0.00000000000E+00  0.88666346804E+02  0.88666346804E+02  0.00000000000E+00 0.  1.
         21   -1    0    0  501  502 -0.00000000000E+00 -0.00000000000E+00 -0.51775692540E+03  0.51775692540E+03  0.00000000000E+00 0.  1.
      99926    2    1    2    0    0  0.00000000000E+00  0.00000000000E+00 -0.42909057859E+03  0.60642327220E+03  0.42852124852E+03 0.  0.
      99925    2    3    3    0    0  0.19138435893E+02  0.51095454984E+02 -0.18298746633E+03  0.32501382813E+03  0.26300674971E+03 0.  0.
         25    1    3    3    0    0 -0.19138435893E+02 -0.51095454984E+02 -0.24610311226E+03  0.28140944407E+03  0.12509000000E+03 0.  0.
         25    1    4    4    0    0  0.62936283815E+01  0.54902566988E+02 -0.12940171139E+03  0.18827164585E+03  0.12509000000E+03 0.  0.
         25    1    4    4    0    0  0.12844807511E+02 -0.38071120049E+01 -0.53585754943E+02  0.13674218228E+03  0.12509000000E+03 0.  0.
<mgrwt>
<rscale>  2 0.42852125E+03</rscale>
<asrwt>0</asrwt>
<pdfrwt beam="1">  1       21 0.13039169E-01 0.42852125E+03</pdfrwt>
<pdfrwt beam="2">  1       21 0.76140724E-01 0.42852125E+03</pdfrwt>
<totfact> 0.72250872E+04</totfact>
</mgrwt>
</event>
<event>
 7    0  0.4709932E-002  0.4467612E+03  0.7546771E-02  0.1028692E+00
         21   -1    0    0  502  501  0.00000000000E+00  0.00000000000E+00  0.70314434417E+03  0.70314434417E+03  0.00000000000E+00 0.  1.
         21   -1    0    0  501  502 -0.00000000000E+00 -0.00000000000E+00 -0.70965367845E+02  0.70965367845E+02  0.00000000000E+00 0.  1.
      99926    2    1    2    0    0  0.35527136788E-14  0.00000000000E+00  0.63217897632E+03  0.77410971201E+03  0.44676122049E+03 0.  0.
      99925    2    3    3    0    0 -0.18337779155E+02 -0.42008072167E+02  0.56510126374E+03  0.62495247988E+03  0.26291673884E+03 0.  0.
         25    1    3    3    0    0  0.18337779155E+02  0.42008072167E+02  0.67077712585E+02  0.14915723213E+03  0.12509000000E+03 0.  0.
         25    1    4    4    0    0 -0.35373265187E+02  0.28276500541E+01  0.32424672246E+03  0.34934611579E+03  0.12509000000E+03 0.  0.
         25    1    4    4    0    0  0.17035486032E+02 -0.44835722221E+02  0.24085454128E+03  0.27560636409E+03  0.12509000000E+03 0.  0.
<mgrwt>
<rscale>  2 0.44676122E+03</rscale>
<asrwt>0</asrwt>
<pdfrwt beam="1">  1       21 0.10340358E+00 0.44676122E+03</pdfrwt>
<pdfrwt beam="2">  1       21 0.10436084E-01 0.44676122E+03</pdfrwt>
<totfact> 0.52346809E+04</totfact>
</mgrwt>
</event>
<event>
 7    0  0.4709932E-002  0.4562513E+03  0.7546771E-02  0.1025874E+00
         21   -1    0    0  502  501  0.00000000000E+00  0.00000000000E+00  0.97470333479E+02  0.97470333479E+02  0.00000000000E+00 0.  1.
         21   -1    0    0  501  502 -0.00000000000E+00 -0.00000000000E+00 -0.53391949998E+03  0.53391949998E+03  0.00000000000E+00 0.  1.
      99926    2    1    2    0    0  0.00000000000E+00  0.14210854715E-13 -0.43644916650E+03  0.63138983346E+03  0.45625129792E+03 0.  0.
      99925    2    3    3    0    0 -0.47852496039E+02  0.67068531098E+02 -0.38390564158E+03  0.47265615917E+03  0.26312022713E+03 0.  0.
         25    1    4    4    0    0 -0.20122811237E+02  0.75064334356E+02 -0.21065370918E+03  0.25702543671E+03  0.12509000000E+03 0.  0.
         25    1    4    4    0    0 -0.27729684801E+02 -0.79958032575E+01 -0.17325193241E+03  0.21563072247E+03  0.12509000000E+03 0.  0.
         25    1    3    3    0    0  0.47852496039E+02 -0.67068531098E+02 -0.52543524913E+02  0.15873367428E+03  0.12509000000E+03 0.  0.
<mgrwt>
<rscale>  2 0.45625130E+03</rscale>
<asrwt>0</asrwt>
<pdfrwt beam="1">  1       21 0.14333873E-01 0.45625130E+03</pdfrwt>
<pdfrwt beam="2">  1       21 0.78517571E-01 0.45625130E+03</pdfrwt>
<totfact> 0.56229105E+04</totfact>
</mgrwt>
</event>
<event>
 7    0  0.4709932E-002  0.4479808E+03  0.7546771E-02  0.1028326E+00
         21   -1    0    0  502  501  0.00000000000E+00  0.00000000000E+00  0.78560256867E+02  0.78560256867E+02  0.00000000000E+00 0.  1.
         21   -1    0    0  501  502 -0.00000000000E+00 -0.00000000000E+00 -0.63863964361E+03  0.63863964361E+03  0.00000000000E+00 0.  1.
      99926    2    1    2    0    0  0.00000000000E+00  0.00000000000E+00 -0.56007938674E+03  0.71719990047E+03  0.44798077837E+03 0.  0.
      99925    2    3    3    0    0  0.98219989068E+02 -0.14241900463E+02 -0.41628417342E+03  0.50231721282E+03  0.26302104720E+03 0.  0.
         25    1    4    4    0    0  0.87415735831E+02 -0.26760393903E+02 -0.23139902755E+03  0.27847916907E+03  0.12509000000E+03 0.  0.
         25    1    3    3    0    0 -0.98219989068E+02  0.14241900463E+02 -0.14379521332E+03  0.21488268766E+03  0.12509000000E+03 0.  0.
         25    1    4    4    0    0  0.10804253237E+02  0.12518493440E+02 -0.18488514587E+03  0.22383804375E+03  0.12509000000E+03 0.  0.
<mgrwt>
<rscale>  2 0.44798078E+03</rscale>
<asrwt>0</asrwt>
<pdfrwt beam="1">  1       21 0.11552978E-01 0.44798078E+03</pdfrwt>
<pdfrwt beam="2">  1       21 0.93917600E-01 0.44798078E+03</pdfrwt>
<totfact> 0.54950842E+04</totfact>
</mgrwt>
</event>
<event>
 7    0  0.4709932E-002  0.4354069E+03  0.7546771E-02  0.1032165E+00
         21   -1    0    0  502  501  0.00000000000E+00  0.00000000000E+00  0.27129334092E+02  0.27129334092E+02  0.00000000000E+00 0. -1.
         21   -1    0    0  501  502 -0.00000000000E+00 -0.00000000000E+00 -0.17469944170E+04  0.17469944170E+04  0.00000000000E+00 0. -1.
      99926    2    1    2    0    0  0.00000000000E+00  0.00000000000E+00 -0.17198650829E+04  0.17741237511E+04  0.43540691403E+03 0.  0.
      99925    2    3    3    0    0  0.68066817714E+02 -0.63148157571E+02 -0.10537675509E+04  0.10900519627E+04  0.26299514919E+03 0.  0.
         25    1    4    4    0    0  0.41946646870E+02 -0.37086763312E+01 -0.62254511014E+03  0.63638290181E+03  0.12509000000E+03 0.  0.
         25    1    4    4    0    0  0.26120170844E+02 -0.59439481240E+02 -0.43122244079E+03  0.45366906088E+03  0.12509000000E+03 0.  0.
         25    1    3    3    0    0 -0.68066817714E+02  0.63148157571E+02 -0.66609753198E+03  0.68407178840E+03  0.12509000000E+03 0.  0.
<mgrwt>
<rscale>  2 0.43540691E+03</rscale>
<asrwt>0</asrwt>
<pdfrwt beam="1">  1       21 0.39896086E-02 0.43540691E+03</pdfrwt>
<pdfrwt beam="2">  1       21 0.25691090E+00 0.43540691E+03</pdfrwt>
<totfact> 0.20741431E+04</totfact>
</mgrwt>
</event>
<event>
 6    0  0.4709932E-002  0.4538538E+03  0.7546771E-02  0.1026579E+00
         21   -1    0    0  502  501  0.00000000000E+00  0.00000000000E+00  0.72680443153E+03  0.72680443153E+03  0.00000000000E+00 0. -1.
         21   -1    0    0  501  502 -0.00000000000E+00 -0.00000000000E+00 -0.70852361752E+02  0.70852361752E+02  0.00000000000E+00 0. -1.
      99926    2    1    2    0    0  0.00000000000E+00  0.00000000000E+00  0.65595206978E+03  0.79765679328E+03  0.45385376722E+03 0.  0.
         25    1    3    3    0    0 -0.97013485614E+00 -0.25929763077E+02  0.19528538343E+03  0.23336062833E+03  0.12509000000E+03 0.  0.
         25    1    3    3    0    0 -0.63756668366E+02  0.36077243544E+02  0.97655397472E+02  0.17478719924E+03  0.12509000000E+03 0.  0.
         25    1    3    3    0    0  0.64726803223E+02 -0.10147480467E+02  0.36301128888E+03  0.38950896571E+03  0.12509000000E+03 0.  0.
<mgrwt>
<rscale>  2 0.45385377E+03</rscale>
<asrwt>0</asrwt>
<pdfrwt beam="1">  1       21 0.10688300E+00 0.45385377E+03</pdfrwt>
<pdfrwt beam="2">  1       21 0.10419465E-01 0.45385377E+03</pdfrwt>
<totfact> 0.48311484E+04</totfact>
</mgrwt>
</event>
<event>
 7    0  0.4709932E-002  0.4507311E+03  0.7546771E-02  0.1027504E+00
         21   -1    0    0  502  501  0.00000000000E+00  0.00000000000E+00  0.55435796656E+02  0.55435796656E+02  0.00000000000E+00 0. -1.
         21   -1    0    0  501  502 -0.00000000000E+00 -0.00000000000E+00 -0.91618849593E+03  0.91618849593E+03  0.00000000000E+00 0. -1.
      99926    2    1    2    0    0 -0.17763568394E-14  0.00000000000E+00 -0.86075269928E+03  0.97162429259E+03  0.45073113564E+03 0.  0.
      99925    2    3    3    0    0  0.99510428075E+01 -0.10489207851E+03 -0.48287938681E+03  0.55987543739E+03  0.26303351839E+03 0.  0.
         25    1    4    4    0    0 -0.28645869960E+02 -0.27603441780E+02 -0.21773582489E+03  0.25424187972E+03  0.12509000000E+03 0.  0.
         25    1    4    4    0    0  0.38596912768E+02 -0.77288636727E+02 -0.26514356192E+03  0.30563355767E+03  0.12509000000E+03 0.  0.
         25    1    3    3    0    0 -0.99510428075E+01  0.10489207851E+03 -0.37787331246E+03  0.41174885520E+03  0.12509000000E+03 0.  0.
<mgrwt>
<rscale>  2 0.45073114E+03</rscale>
<asrwt>0</asrwt>
<pdfrwt beam="1">  1       21 0.81523235E-02 0.45073114E+03</pdfrwt>
<pdfrwt beam="2">  1       21 0.13473359E+00 0.45073114E+03</pdfrwt>
<totfact> 0.41650067E+04</totfact>
</mgrwt>
</event>
<event>
 7    0  0.4709932E-002  0.4536646E+03  0.7546771E-02  0.1026635E+00
         21   -1    0    0  502  501  0.00000000000E+00  0.00000000000E+00  0.80995133334E+02  0.80995133334E+02  0.00000000000E+00 0.  1.
         21   -1    0    0  501  502 -0.00000000000E+00 -0.00000000000E+00 -0.63525904470E+03  0.63525904470E+03  0.00000000000E+00 0.  1.
      99926    2    1    2    0    0  0.35527136788E-14  0.14210854715E-13 -0.55426391137E+03  0.71625417804E+03  0.45366459429E+03 0.  0.
      99925    2    3    3    0    0 -0.25153451621E+02 -0.94397070201E+02 -0.43537256992E+03  0.51794592767E+03  0.26301179891E+03 0.  0.
         25    1    3    3    0    0  0.25153451621E+02  0.94397070201E+02 -0.11889134145E+03  0.19830825037E+03  0.12509000000E+03 0.  0.
         25    1    4    4    0    0 -0.48262523096E+02 -0.43308931860E+02 -0.18553220840E+03  0.23296918931E+03  0.12509000000E+03 0.  0.
         25    1    4    4    0    0  0.23109071475E+02 -0.51088138341E+02 -0.24984036152E+03  0.28497673836E+03  0.12509000000E+03 0.  0.
<mgrwt>
<rscale>  2 0.45366459E+03</rscale>
<asrwt>0</asrwt>
<pdfrwt beam="1">  1       21 0.11911049E-01 0.45366459E+03</pdfrwt>
<pdfrwt beam="2">  1       21 0.93420450E-01 0.45366459E+03</pdfrwt>
<totfact> 0.52579522E+04</totfact>
</mgrwt>
</event>
<event>
 7    0  0.4709932E-002  0.4224513E+03  0.7546771E-02  0.1036271E+00
         21   -1    0    0  502  501  0.00000000000E+00  0.00000000000E+00  0.72337841383E+03  0.72337841383E+03  0.00000000000E+00 0.  1.
         21   -1    0    0  501  502 -0.00000000000E+00 -0.00000000000E+00 -0.61677643300E+02  0.61677643300E+02  0.00000000000E+00 0.  1.
      99926    2    1    2    0    0  0.00000000000E+00  0.00000000000E+00  0.66170077053E+03  0.78505605713E+03  0.42245130266E+03 0.  0.
      99925    2    3    3    0    0 -0.54522971818E+02  0.51650624729E+02  0.47454120796E+03  0.54774454993E+03  0.26304788999E+03 0.  0.
         25    1    4    4    0    0  0.12532983030E+02  0.23904945911E+02  0.24593486096E+03  0.27723633607E+03  0.12509000000E+03 0.  0.
         25    1    4    4    0    0 -0.67055954848E+02  0.27745678818E+02  0.22860634700E+03  0.27050821385E+03  0.12509000000E+03 0.  0.
         25    1    3    3    0    0  0.54522971818E+02 -0.51650624729E+02  0.18715956257E+03  0.23731150721E+03  0.12509000000E+03 0.  0.
<mgrwt>
<rscale>  2 0.42245130E+03</rscale>
<asrwt>0</asrwt>
<pdfrwt beam="1">  1       21 0.10637917E+00 0.42245130E+03</pdfrwt>
<pdfrwt beam="2">  1       21 0.90702420E-02 0.42245130E+03</pdfrwt>
<totfact> 0.63149263E+04</totfact>
</mgrwt>
</event>
<event>
 7    0  0.4709932E-002  0.4564155E+03  0.7546771E-02  0.1025826E+00
         21   -1    0    0  502  501  0.00000000000E+00  0.00000000000E+00  0.40154324254E+03  0.40154324254E+03  0.00000000000E+00 0. -1.
         21   -1    0    0  501  502 -0.00000000000E+00 -0.00000000000E+00 -0.12969653905E+03  0.12969653905E+03  0.00000000000E+00 0. -1.
      99926    2    1    2    0    0  0.00000000000E+00 -0.71054273576E-14  0.27184670349E+03  0.53123978160E+03  0.45641546353E+03 0.  0.
      99925    2    3    3    0    0 -0.68125941077E+02  0.48420885929E+02  0.79555777799E+02  0.28709016713E+03  0.26288004154E+03 0.  0.
         25    1    3    3    0    0  0.68125941077E+02 -0.48420885929E+02  0.19229092569E+03  0.24414961447E+03  0.12509000000E+03 0.  0.
         25    1    4    4    0    0 -0.51320636920E+02 -0.52927946557E+01  0.61872687699E+02  0.14878695854E+03  0.12509000000E+03 0.  0.
         25    1    4    4    0    0 -0.16805304156E+02  0.53713680585E+02  0.17683090100E+02  0.13830320859E+03  0.12509000000E+03 0.  0.
<mgrwt>
<rscale>  2 0.45641546E+03</rscale>
<asrwt>0</asrwt>
<pdfrwt beam="1">  1       21 0.59050477E-01 0.45641546E+03</pdfrwt>
<pdfrwt beam="2">  1       21 0.19073021E-01 0.45641546E+03</pdfrwt>
<totfact> 0.62419459E+04</totfact>
</mgrwt>
</event>
<event>
 7    0  0.4709932E-002  0.4614825E+03  0.7546771E-02  0.1024352E+00
         21   -1    0    0  502  501  0.00000000000E+00  0.00000000000E+00  0.59287305293E+03  0.59287305293E+03  0.00000000000E+00 0. -1.
         21   -1    0    0  501  502 -0.00000000000E+00 -0.00000000000E+00 -0.89802582275E+02  0.89802582275E+02  0.00000000000E+00 0. -1.
      99926    2    1    2    0    0  0.00000000000E+00  0.00000000000E+00  0.50307047065E+03  0.68267563520E+03  0.46148252887E+03 0.  0.
      99925    2    3    3    0    0 -0.89839063284E+02 -0.78210211363E+02  0.30562053100E+03  0.42033638686E+03  0.26285143084E+03 0.  0.
         25    1    3    3    0    0  0.89839063284E+02  0.78210211363E+02  0.19744993965E+03  0.26233924834E+03  0.12509000000E+03 0.  0.
         25    1    4    4    0    0 -0.15556397493E+02 -0.63338182153E+01  0.12829721697E+03  0.17997167204E+03  0.12509000000E+03 0.  0.
         25    1    4    4    0    0 -0.74282665791E+02 -0.71876393147E+02  0.17732331403E+03  0.24036471482E+03  0.12509000000E+03 0.  0.
<mgrwt>
<rscale>  2 0.46148253E+03</rscale>
<asrwt>0</asrwt>
<pdfrwt beam="1">  1       21 0.87187212E-01 0.46148253E+03</pdfrwt>
<pdfrwt beam="2">  1       21 0.13206262E-01 0.46148253E+03</pdfrwt>
<totfact> 0.51189212E+04</totfact>
</mgrwt>
</event>
<event>
 7    0  0.4709932E-002  0.4539760E+03  0.7546771E-02  0.1026543E+00
         21   -1    0    0  502  501  0.00000000000E+00  0.00000000000E+00  0.69659376640E+02  0.69659376640E+02  0.00000000000E+00 0. -1.
         21   -1    0    0  501  502 -0.00000000000E+00 -0.00000000000E+00 -0.73964981546E+03  0.73964981546E+03  0.00000000000E+00 0. -1.
      99926    2    1    2    0    0  0.00000000000E+00  0.00000000000E+00 -0.66999043882E+03  0.80930919210E+03  0.45397596887E+03 0.  0.
      99925    2    3    3    0    0  0.82614974091E+02  0.64531395188E+01 -0.55695726968E+03  0.62145051549E+03  0.26293053454E+03 0.  0.
         25    1    4    4    0    0  0.56702309049E+02  0.27366461724E+02 -0.35437974747E+03  0.38104670133E+03  0.12509000000E+03 0.  0.
         25    1    3    3    0    0 -0.82614974091E+02 -0.64531395188E+01 -0.11303316914E+03  0.18785867662E+03  0.12509000000E+03 0.  0.
         25    1    4    4    0    0  0.25912665042E+02 -0.20913322205E+02 -0.20257752221E+03  0.24040381415E+03  0.12509000000E+03 0.  0.
<mgrwt>
<rscale>  2 0.45397597E+03</rscale>
<asrwt>0</asrwt>
<pdfrwt beam="1">  1       21 0.10244026E-01 0.45397597E+03</pdfrwt>
<pdfrwt beam="2">  1       21 0.10877203E+00 0.45397597E+03</pdfrwt>
<totfact> 0.47699986E+04</totfact>
</mgrwt>
</event>
<event>
 7    0  0.4709932E-002  0.4423947E+03  0.7546771E-02  0.1030015E+00
         21   -1    0    0  502  501  0.00000000000E+00  0.00000000000E+00  0.17822326506E+04  0.17822326506E+04  0.00000000000E+00 0.  1.
         21   -1    0    0  501  502 -0.00000000000E+00 -0.00000000000E+00 -0.27453350462E+02  0.27453350462E+02  0.00000000000E+00 0.  1.
      99926    2    1    2    0    0  0.71054273576E-14  0.14210854715E-13  0.17547793001E+04  0.18096860011E+04  0.44239465440E+03 0.  0.
      99925    2    3    3    0    0  0.32138733314E+02  0.95043694581E+02  0.10773585102E+04  0.11135447534E+04  0.26308621420E+03 0.  0.
         25    1    4    4    0    0  0.17038998254E+02  0.21568098985E+02  0.63411979504E+03  0.64692420956E+03  0.12509000000E+03 0.  0.
         25    1    3    3    0    0 -0.32138733314E+02 -0.95043694581E+02  0.67742078991E+03  0.69614124771E+03  0.12509000000E+03 0.  0.
         25    1    4    4    0    0  0.15099735059E+02  0.73475595597E+02  0.44323871520E+03  0.46662054381E+03  0.12509000000E+03 0.  0.
<mgrwt>
<rscale>  2 0.44239465E+03</rscale>
<asrwt>0</asrwt>
<pdfrwt beam="1">  1       21 0.26209296E+00 0.44239465E+03</pdfrwt>
<pdfrwt beam="2">  1       21 0.40372586E-02 0.44239465E+03</pdfrwt>
<totfact> 0.18852043E+04</totfact>
</mgrwt>
</event>
<event>
 7    0  0.4709932E-002  0.4613215E+03  0.7546771E-02  0.1024399E+00
         21   -1    0    0  502  501  0.00000000000E+00  0.00000000000E+00  0.51365730502E+02  0.51365730502E+02  0.00000000000E+00 0.  1.
         21   -1    0    0  501  502 -0.00000000000E+00 -0.00000000000E+00 -0.10357953151E+04  0.10357953151E+04  0.00000000000E+00 0.  1.
      99926    2    1    2    0    0  0.71054273576E-14  0.00000000000E+00 -0.98442958463E+03  0.10871610456E+04  0.46132150616E+03 0.  0.
      99925    2    3    3    0    0 -0.45028159084E+02 -0.96711050393E+02 -0.74063873824E+03  0.79311675090E+03  0.26288377205E+03 0.  0.
         25    1    4    4    0    0  0.17867932132E+02 -0.47663920602E+02 -0.37118228561E+03  0.39498722710E+03  0.12509000000E+03 0.  0.
         25    1    4    4    0    0 -0.62896091217E+02 -0.49047129791E+02 -0.36945645263E+03  0.39812952380E+03  0.12509000000E+03 0.  0.
         25    1    3    3    0    0  0.45028159084E+02  0.96711050393E+02 -0.24379084639E+03  0.29404429473E+03  0.12509000000E+03 0.  0.
<mgrwt>
<rscale>  2 0.46132151E+03</rscale>
<asrwt>0</asrwt>
<pdfrwt beam="1">  1       21 0.75537840E-02 0.46132151E+03</pdfrwt>
<pdfrwt beam="2">  1       21 0.15232284E+00 0.46132151E+03</pdfrwt>
<totfact> 0.34223265E+04</totfact>
</mgrwt>
</event>
<event>
 7    0  0.4709932E-002  0.4663138E+03  0.7546771E-02  0.1022966E+00
         21   -1    0    0  502  501  0.00000000000E+00  0.00000000000E+00  0.47124318898E+02  0.47124318898E+02  0.00000000000E+00 0. -1.
         21   -1    0    0  501  502 -0.00000000000E+00 -0.00000000000E+00 -0.11535899482E+04  0.11535899482E+04  0.00000000000E+00 0. -1.
      99926    2    1    2    0    0  0.00000000000E+00  0.00000000000E+00 -0.11064656293E+04  0.12007142671E+04  0.46631380248E+03 0.  0.
      99925    2    3    3    0    0  0.66196871479E+02  0.36670186607E+02 -0.94079571850E+03  0.97976007314E+03  0.26288113016E+03 0.  0.
         25    1    4    4    0    0 -0.80548726640E+01  0.15747103549E+02 -0.45615213053E+03  0.47332349036E+03  0.12509000000E+03 0.  0.
         25    1    4    4    0    0  0.74251744143E+02  0.20923083059E+02 -0.48464358797E+03  0.50643658278E+03  0.12509000000E+03 0.  0.
         25    1    3    3    0    0 -0.66196871479E+02 -0.36670186607E+02 -0.16566991077E+03  0.22095419393E+03  0.12509000000E+03 0.  0.
<mgrwt>
<rscale>  2 0.46631380E+03</rscale>
<asrwt>0</asrwt>
<pdfrwt beam="1">  1       21 0.69300466E-02 0.46631380E+03</pdfrwt>
<pdfrwt beam="2">  1       21 0.16964559E+00 0.46631380E+03</pdfrwt>
<totfact> 0.29450805E+04</totfact>
</mgrwt>
</event>
<event>
 7    0  0.4709932E-002  0.4573000E+03  0.7546771E-02  0.1025567E+00
         21   -1    0    0  502  501  0.00000000000E+00  0.00000000000E+00  0.58777557390E+03  0.58777557390E+03  0.00000000000E+00 0.  1.
         21   -1    0    0  501  502 -0.00000000000E+00 -0.00000000000E+00 -0.88946911115E+02  0.88946911115E+02  0.00000000000E+00 0.  1.
      99926    2    1    2    0    0  0.00000000000E+00  0.00000000000E+00  0.49882866278E+03  0.67672248501E+03  0.45729999662E+03 0.  0.
      99925    2    3    3    0    0 -0.66703175783E+02  0.27133644918E+02  0.18005760695E+03  0.32679671791E+03  0.26303954963E+03 0.  0.
         25    1    4    4    0    0 -0.43685693599E+02  0.33545853546E+02  0.52120677849E+02  0.14627999615E+03  0.12509000000E+03 0.  0.
         25    1    4    4    0    0 -0.23017482185E+02 -0.64122086274E+01  0.12793692910E+03  0.18051672175E+03  0.12509000000E+03 0.  0.
         25    1    3    3    0    0  0.66703175783E+02 -0.27133644918E+02  0.31877105584E+03  0.34992576711E+03  0.12509000000E+03 0.  0.
<mgrwt>
<rscale>  2 0.45730000E+03</rscale>
<asrwt>0</asrwt>
<pdfrwt beam="1">  1       21 0.86437583E-01 0.45730000E+03</pdfrwt>
<pdfrwt beam="2">  1       21 0.13080428E-01 0.45730000E+03</pdfrwt>
<totfact> 0.53214407E+04</totfact>
</mgrwt>
</event>
<event>
 7    0  0.4709932E-002  0.4582246E+03  0.7546771E-02  0.1025297E+00
         21   -1    0    0  502  501  0.00000000000E+00  0.00000000000E+00  0.10539417282E+03  0.10539417282E+03  0.00000000000E+00 0. -1.
         21   -1    0    0  501  502 -0.00000000000E+00 -0.00000000000E+00 -0.49805838448E+03  0.49805838448E+03  0.00000000000E+00 0. -1.
      99926    2    1    2    0    0  0.00000000000E+00  0.00000000000E+00 -0.39266421166E+03  0.60345255730E+03  0.45822462373E+03 0.  0.
      99925    2    3    3    0    0  0.75729678284E+02  0.85224983116E+02 -0.27609149182E+03  0.39794102714E+03  0.26293015670E+03 0.  0.
         25    1    4    4    0    0  0.73267449122E+02  0.40079179566E+02 -0.17578148861E+03  0.23134627633E+03  0.12509000000E+03 0.  0.
         25    1    4    4    0    0  0.24622291626E+01  0.45145803550E+02 -0.10031000321E+03  0.16659475080E+03  0.12509000000E+03 0.  0.
         25    1    3    3    0    0 -0.75729678284E+02 -0.85224983116E+02 -0.11657271984E+03  0.20551153016E+03  0.12509000000E+03 0.  0.
<mgrwt>
<rscale>  2 0.45822462E+03</rscale>
<asrwt>0</asrwt>
<pdfrwt beam="1">  1       21 0.15499143E-01 0.45822462E+03</pdfrwt>
<pdfrwt beam="2">  1       21 0.73243882E-01 0.45822462E+03</pdfrwt>
<totfact> 0.57000155E+04</totfact>
</mgrwt>
</event>
<event>
 7    0  0.4709932E-002  0.4391452E+03  0.7546771E-02  0.1031009E+00
         21   -1    0    0  502  501  0.00000000000E+00  0.00000000000E+00  0.20025739276E+04  0.20025739276E+04  0.00000000000E+00 0. -1.
         21   -1    0    0  501  502 -0.00000000000E+00 -0.00000000000E+00 -0.24075081793E+02  0.24075081793E+02  0.00000000000E+00 0. -1.
      99926    2    1    2    0    0  0.00000000000E+00  0.00000000000E+00  0.19784988458E+04  0.20266490094E+04  0.43914522020E+03 0.  0.
      99925    2    3    3    0    0  0.44119010619E+02  0.81428237250E+02  0.13989320972E+04  0.14265472105E+04  0.26353156569E+03 0.  0.
         25    1    3    3    0    0 -0.44119010619E+02 -0.81428237250E+02  0.57956674860E+03  0.60010179895E+03  0.12509000000E+03 0.  0.
         25    1    4    4    0    0  0.63068113511E+02  0.49692468636E+02  0.77527086278E+03  0.78939175772E+03  0.12509000000E+03 0.  0.
         25    1    4    4    0    0 -0.18949102892E+02  0.31735768614E+02  0.62366123446E+03  0.63715545276E+03  0.12509000000E+03 0.  0.
<mgrwt>
<rscale>  2 0.43914522E+03</rscale>
<asrwt>0</asrwt>
<pdfrwt beam="1">  1       21 0.29449605E+00 0.43914522E+03</pdfrwt>
<pdfrwt beam="2">  1       21 0.35404546E-02 0.43914522E+03</pdfrwt>
<totfact> 0.15048161E+04</totfact>
</mgrwt>
</event>
<event>
 7    0  0.4709932E-002  0.4636099E+03  0.7546771E-02  0.1023739E+00
         21   -1    0    0  502  501  0.00000000000E+00  0.00000000000E+00  0.46471877055E+03  0.46471877055E+03  0.00000000000E+00 0. -1.
         21   -1    0    0  501  502 -0.00000000000E+00 -0.00000000000E+00 -0.11562590298E+03  0.11562590298E+03  0.00000000000E+00 0. -1.
      99926    2    1    2    0    0  0.00000000000E+00  0.00000000000E+00  0.34909286756E+03  0.58034467353E+03  0.46360986822E+03 0.  0.
      99925    2    3    3    0    0 -0.70911239686E+02  0.76765815231E+02  0.14143753767E+03  0.31635672222E+03  0.26297453172E+03 0.  0.
         25    1    4    4    0    0 -0.62118937552E+02  0.38035950777E+02  0.39125892200E+02  0.14994612197E+03  0.12509000000E+03 0.  0.
         25    1    4    4    0    0 -0.87923021337E+01  0.38729864454E+02  0.10231164547E+03  0.16641060025E+03  0.12509000000E+03 0.  0.
         25    1    3    3    0    0  0.70911239686E+02 -0.76765815231E+02  0.20765532989E+03  0.26398795131E+03  0.12509000000E+03 0.  0.
<mgrwt>
<rscale>  2 0.46360987E+03</rscale>
<asrwt>0</asrwt>
<pdfrwt beam="1">  1       21 0.68340995E-01 0.46360987E+03</pdfrwt>
<pdfrwt beam="2">  1       21 0.17003809E-01 0.46360987E+03</pdfrwt>
<totfact> 0.55994778E+04</totfact>
</mgrwt>
</event>
<event>
 7    0  0.4709932E-002  0.4552770E+03  0.7546771E-02  0.1026160E+00
         21   -1    0    0  502  501  0.00000000000E+00  0.00000000000E+00  0.30886906452E+03  0.30886906452E+03  0.00000000000E+00 0.  1.
         21   -1    0    0  501  502 -0.00000000000E+00 -0.00000000000E+00 -0.16777101286E+03  0.16777101286E+03  0.00000000000E+00 0.  1.
      99926    2    1    2    0    0  0.00000000000E+00 -0.14210854715E-13  0.14109805166E+03  0.47664007738E+03  0.45527695218E+03 0.  0.
      99925    2    3    3    0    0  0.45352634191E+02 -0.95438904504E+02  0.13186772678E+03  0.31263351373E+03  0.26303074083E+03 0.  0.
         25    1    4    4    0    0 -0.13143546919E+02 -0.28841067695E+02  0.74060968393E+02  0.14878539966E+03  0.12509000000E+03 0.  0.
         25    1    3    3    0    0 -0.45352634191E+02  0.95438904504E+02  0.92303248752E+01  0.16400656364E+03  0.12509000000E+03 0.  0.
         25    1    4    4    0    0  0.58496181110E+02 -0.66597836809E+02  0.57806758388E+02  0.16384811408E+03  0.12509000000E+03 0.  0.
<mgrwt>
<rscale>  2 0.45527695E+03</rscale>
<asrwt>0</asrwt>
<pdfrwt beam="1">  1       21 0.45421921E-01 0.45527695E+03</pdfrwt>
<pdfrwt beam="2">  1       21 0.24672208E-01 0.45527695E+03</pdfrwt>
<totfact> 0.66798555E+04</totfact>
</mgrwt>
</event>
<event>
 7    0  0.4709932E-002  0.4889177E+03  0.7546771E-02  0.1016713E+00
         21   -1    0    0  502  501  0.00000000000E+00  0.00000000000E+00  0.59806813237E+03  0.59806813237E+03  0.00000000000E+00 0. -1.
         21   -1    0    0  501  502 -0.00000000000E+00 -0.00000000000E+00 -0.99921926287E+02  0.99921926287E+02  0.00000000000E+00 0. -1.
      99926    2    1    2    0    0  0.00000000000E+00 -0.35527136788E-14  0.49814620608E+03  0.69799005865E+03  0.48891766111E+03 0.  0.
      99925    2    3    3    0    0  0.14146208487E+03 -0.17953302503E+02  0.29832782608E+03  0.42247465870E+03  0.26296673345E+03 0.  0.
         25    1    4    4    0    0  0.45018043674E+02  0.19959933602E+02  0.10945677258E+03  0.17335892353E+03  0.12509000000E+03 0.  0.
         25    1    4    4    0    0  0.96444041200E+02 -0.37913236105E+02  0.18887105351E+03  0.24911573517E+03  0.12509000000E+03 0.  0.
         25    1    3    3    0    0 -0.14146208487E+03  0.17953302503E+02  0.19981837999E+03  0.27551539995E+03  0.12509000000E+03 0.  0.
<mgrwt>
<rscale>  2 0.48891766E+03</rscale>
<asrwt>0</asrwt>
<pdfrwt beam="1">  1       21 0.87951194E-01 0.48891766E+03</pdfrwt>
<pdfrwt beam="2">  1       21 0.14694401E-01 0.48891766E+03</pdfrwt>
<totfact> 0.40930476E+04</totfact>
</mgrwt>
</event>
<event>
 7    0  0.4709932E-002  0.4449919E+03  0.7546771E-02  0.1029226E+00
         21   -1    0    0  502  501  0.00000000000E+00  0.00000000000E+00  0.24235564235E+03  0.24235564235E+03  0.00000000000E+00 0.  1.
         21   -1    0    0  501  502 -0.00000000000E+00 -0.00000000000E+00 -0.20426362136E+03  0.20426362136E+03  0.00000000000E+00 0.  1.
      99926    2    1    2    0    0  0.00000000000E+00  0.00000000000E+00  0.38092020986E+02  0.44661926371E+03  0.44499187032E+03 0.  0.
      99925    2    3    3    0    0 -0.86306881952E+02  0.49632015861E+02  0.52862876395E+02  0.28606428515E+03  0.26291838404E+03 0.  0.
         25    1    3    3    0    0  0.86306881952E+02 -0.49632015861E+02 -0.14770855409E+02  0.16055497856E+03  0.12509000000E+03 0.  0.
         25    1    4    4    0    0 -0.53283840921E+02  0.39878633686E+02 -0.97005122520E+01  0.14202493149E+03  0.12509000000E+03 0.  0.
         25    1    4    4    0    0 -0.33023041032E+02  0.97533821751E+01  0.62563388647E+02  0.14403935366E+03  0.12509000000E+03 0.  0.
<mgrwt>
<rscale>  2 0.44499187E+03</rscale>
<asrwt>0</asrwt>
<pdfrwt beam="1">  1       21 0.35640536E-01 0.44499187E+03</pdfrwt>
<pdfrwt beam="2">  1       21 0.30038767E-01 0.44499187E+03</pdfrwt>
<totfact> 0.74974532E+04</totfact>
</mgrwt>
</event>
<event>
 7    0  0.4709932E-002  0.4008101E+03  0.7546771E-02  0.1043500E+00
         21   -1    0    0  502  501  0.00000000000E+00  0.00000000000E+00  0.10579864628E+03  0.10579864628E+03  0.00000000000E+00 0. -1.
         21   -1    0    0  501  502 -0.00000000000E+00 -0.00000000000E+00 -0.37960967002E+03  0.37960967002E+03  0.00000000000E+00 0. -1.
      99926    2    1    2    0    0  0.00000000000E+00  0.71054273576E-14 -0.27381102374E+03  0.48540831629E+03  0.40081012563E+03 0.  0.
      99925    2    3    3    0    0 -0.20656286792E+02 -0.40687935029E+02 -0.19580913417E+03  0.33109048480E+03  0.26305418046E+03 0.  0.
         25    1    4    4    0    0  0.19148878812E+02  0.72800029250E+01 -0.10291025892E+03  0.16327188213E+03  0.12509000000E+03 0.  0.
         25    1    3    3    0    0  0.20656286792E+02  0.40687935029E+02 -0.78001889570E+02  0.15431783150E+03  0.12509000000E+03 0.  0.
         25    1    4    4    0    0 -0.39805165604E+02 -0.47967937954E+02 -0.92898875247E+02  0.16781860267E+03  0.12509000000E+03 0.  0.
<mgrwt>
<rscale>  2 0.40081013E+03</rscale>
<asrwt>0</asrwt>
<pdfrwt beam="1">  1       21 0.15558624E-01 0.40081013E+03</pdfrwt>
<pdfrwt beam="2">  1       21 0.55824951E-01 0.40081013E+03</pdfrwt>
<totfact> 0.10450152E+05</totfact>
</mgrwt>
</event>
<event>
 7    0  0.4709932E-002  0.4548037E+03  0.7546771E-02  0.1026299E+00
         21   -1    0    0  502  501  0.00000000000E+00  0.00000000000E+00  0.13952551420E+03  0.13952551420E+03  0.00000000000E+00 0.  1.
         21   -1    0    0  501  502 -0.00000000000E+00 -0.00000000000E+00 -0.37062466723E+03  0.37062466723E+03  0.00000000000E+00 0.  1.
      99926    2    1    2    0    0  0.00000000000E+00  0.00000000000E+00 -0.23109915303E+03  0.51015018143E+03  0.45480368191E+03 0.  0.
      99925    2    3    3    0    0  0.84944092608E+02 -0.59886328455E+02 -0.19511446228E+03  0.34358404659E+03  0.26301800789E+03 0.  0.
         25    1    3    3    0    0 -0.84944092608E+02  0.59886328455E+02 -0.35984690752E+02  0.16656613483E+03  0.12509000000E+03 0.  0.
         25    1    4    4    0    0  0.42358914892E+02 -0.31874825131E+02 -0.14706835669E+03  0.20021711162E+03  0.12509000000E+03 0.  0.
         25    1    4    4    0    0  0.42585177715E+02 -0.28011503324E+02 -0.48046105591E+02  0.14336693497E+03  0.12509000000E+03 0.  0.
<mgrwt>
<rscale>  2 0.45480368E+03</rscale>
<asrwt>0</asrwt>
<pdfrwt beam="1">  1       21 0.20518458E-01 0.45480368E+03</pdfrwt>
<pdfrwt beam="2">  1       21 0.54503627E-01 0.45480368E+03</pdfrwt>
<totfact> 0.64663991E+04</totfact>
</mgrwt>
</event>
<event>
 7    0  0.4709932E-002  0.4595167E+03  0.7546771E-02  0.1024921E+00
         21   -1    0    0  502  501  0.00000000000E+00  0.00000000000E+00  0.14326141986E+03  0.14326141986E+03  0.00000000000E+00 0.  1.
         21   -1    0    0  501  502 -0.00000000000E+00 -0.00000000000E+00 -0.36847954727E+03  0.36847954727E+03  0.00000000000E+00 0.  1.
      99926    2    1    2    0    0  0.00000000000E+00  0.71054273576E-14 -0.22521812741E+03  0.51174096713E+03  0.45951671626E+03 0.  0.
      99925    2    3    3    0    0 -0.10665617387E+03 -0.35551591965E+02 -0.10348855102E+03  0.30412340288E+03  0.26294811060E+03 0.  0.
         25    1    3    3    0    0  0.10665617387E+03  0.35551591965E+02 -0.12172957640E+03  0.20761756425E+03  0.12509000000E+03 0.  0.
         25    1    4    4    0    0 -0.47105208665E+02  0.21985249956E+02 -0.58077663819E+02  0.14738648186E+03  0.12509000000E+03 0.  0.
         25    1    4    4    0    0 -0.59550965207E+02 -0.57536841921E+02 -0.45410887198E+02  0.15673692102E+03  0.12509000000E+03 0.  0.
<mgrwt>
<rscale>  2 0.45951672E+03</rscale>
<asrwt>0</asrwt>
<pdfrwt beam="1">  1       21 0.21067856E-01 0.45951672E+03</pdfrwt>
<pdfrwt beam="2">  1       21 0.54188167E-01 0.45951672E+03</pdfrwt>
<totfact> 0.62193913E+04</totfact>
</mgrwt>
</event>
<event>
 7    0  0.4709932E-002  0.4521203E+03  0.7546771E-02  0.1027092E+00
         21   -1    0    0  502  501  0.00000000000E+00  0.00000000000E+00  0.23752565243E+03  0.23752565243E+03  0.00000000000E+00 0.  1.
         21   -1    0    0  501  502 -0.00000000000E+00 -0.00000000000E+00 -0.21514808642E+03  0.21514808642E+03  0.00000000000E+00 0.  1.
      99926    2    1    2    0    0 -0.14210854715E-13  0.35527136788E-14  0.22377566007E+02  0.45267373885E+03  0.45212029194E+03 0.  0.
      99925    2    3    3    0    0 -0.81956465457E+02  0.21517755320E+02 -0.56755545142E+02  0.28211749181E+03  0.26303842163E+03 0.  0.
         25    1    3    3    0    0  0.81956465457E+02 -0.21517755320E+02  0.79133111150E+02  0.17055624704E+03  0.12509000000E+03 0.  0.
         25    1    4    4    0    0 -0.12149167273E+02  0.45742890012E+01  0.34496009550E+01  0.12580911824E+03  0.12509000000E+03 0.  0.
         25    1    4    4    0    0 -0.69807298184E+02  0.16943466319E+02 -0.60205146097E+02  0.15630837357E+03  0.12509000000E+03 0.  0.
<mgrwt>
<rscale>  2 0.45212029E+03</rscale>
<asrwt>0</asrwt>
<pdfrwt beam="1">  1       21 0.34930243E-01 0.45212029E+03</pdfrwt>
<pdfrwt beam="2">  1       21 0.31639424E-01 0.45212029E+03</pdfrwt>
<totfact> 0.70318432E+04</totfact>
</mgrwt>
</event>
<event>
 7    0  0.4709932E-002  0.4555106E+03  0.7546771E-02  0.1026091E+00
         21   -1    0    0  502  501  0.00000000000E+00  0.00000000000E+00  0.69196560616E+03  0.69196560616E+03  0.00000000000E+00 0.  1.
         21   -1    0    0  501  502 -0.00000000000E+00 -0.00000000000E+00 -0.74963949013E+02  0.74963949013E+02  0.00000000000E+00 0.  1.
      99926    2    1    2    0    0  0.00000000000E+00  0.00000000000E+00  0.61700165715E+03  0.76692955518E+03  0.45551059008E+03 0.  0.
      99925    2    3    3    0    0 -0.21843873245E+02  0.88252672018E+02  0.27309525611E+03  0.38985554428E+03  0.26294607352E+03 0.  0.
         25    1    4    4    0    0 -0.49198714037E+02  0.31760065094E+02  0.12930940250E+03  0.18920265557E+03  0.12509000000E+03 0.  0.
         25    1    3    3    0    0  0.21843873245E+02 -0.88252672018E+02  0.34390640104E+03  0.37707401090E+03  0.12509000000E+03 0.  0.
         25    1    4    4    0    0  0.27354840792E+02  0.56492606924E+02  0.14378585361E+03  0.20065288872E+03  0.12509000000E+03 0.  0.
<mgrwt>
<rscale>  2 0.45551059E+03</rscale>
<asrwt>0</asrwt>
<pdfrwt beam="1">  1       21 0.10175964E+00 0.45551059E+03</pdfrwt>
<pdfrwt beam="2">  1       21 0.11024111E-01 0.45551059E+03</pdfrwt>
<totfact> 0.49208309E+04</totfact>
</mgrwt>
</event>
<event>
 7    0  0.4709932E-002  0.4558418E+03  0.7546771E-02  0.1025994E+00
         21   -1    0    0  502  501  0.00000000000E+00  0.00000000000E+00  0.80379846883E+03  0.80379846883E+03  0.00000000000E+00 0. -1.
         21   -1    0    0  501  502 -0.00000000000E+00 -0.00000000000E+00 -0.64628060693E+02  0.64628060693E+02  0.00000000000E+00 0. -1.
      99926    2    1    2    0    0  0.14210854715E-13 -0.71054273576E-14  0.73917040813E+03  0.86842652952E+03  0.45584179812E+03 0.  0.
      99925    2    3    3    0    0  0.10964955909E+03 -0.23994756070E+02  0.50264132943E+03  0.57826745711E+03  0.26295659675E+03 0.  0.
         25    1    4    4    0    0  0.76192129947E+02 -0.37544121723E+02  0.32053180877E+03  0.35440506525E+03  0.12509000000E+03 0.  0.
         25    1    4    4    0    0  0.33457429146E+02  0.13549365653E+02  0.18210952066E+03  0.22386239186E+03  0.12509000000E+03 0.  0.
         25    1    3    3    0    0 -0.10964955909E+03  0.23994756070E+02  0.23652907871E+03  0.29015907241E+03  0.12509000000E+03 0.  0.
<mgrwt>
<rscale>  2 0.45584180E+03</rscale>
<asrwt>0</asrwt>
<pdfrwt beam="1">  1       21 0.11820565E+00 0.45584180E+03</pdfrwt>
<pdfrwt beam="2">  1       21 0.95041271E-02 0.45584180E+03</pdfrwt>
<totfact> 0.44332466E+04</totfact>
</mgrwt>
</event>
<event>
 7    0  0.4709932E-002  0.4545537E+03  0.7546771E-02  0.1026373E+00
         21   -1    0    0  502  501  0.00000000000E+00  0.00000000000E+00  0.83410251072E+03  0.83410251072E+03  0.00000000000E+00 0.  1.
         21   -1    0    0  501  502 -0.00000000000E+00 -0.00000000000E+00 -0.61928571031E+02  0.61928571031E+02  0.00000000000E+00 0.  1.
      99926    2    1    2    0    0  0.00000000000E+00  0.00000000000E+00  0.77217393969E+03  0.89603108175E+03  0.45455374416E+03 0.  0.
      99925    2    3    3    0    0  0.80276689392E+02  0.48207126159E+01  0.33123985961E+03  0.43069469030E+03  0.26326884649E+03 0.  0.
         25    1    4    4    0    0  0.46679202580E+02 -0.34454591815E+02  0.14096264098E+03  0.19719036768E+03  0.12509000000E+03 0.  0.
         25    1    3    3    0    0 -0.80276689392E+02 -0.48207126159E+01  0.44093408008E+03  0.46533639145E+03  0.12509000000E+03 0.  0.
         25    1    4    4    0    0  0.33597486812E+02  0.39275304431E+02  0.19027721862E+03  0.23350432263E+03  0.12509000000E+03 0.  0.
<mgrwt>
<rscale>  2 0.45455374E+03</rscale>
<asrwt>0</asrwt>
<pdfrwt beam="1">  1       21 0.12266213E+00 0.45455374E+03</pdfrwt>
<pdfrwt beam="2">  1       21 0.91071433E-02 0.45455374E+03</pdfrwt>
<totfact> 0.43557729E+04</totfact>
</mgrwt>
</event>
<event>
 7    0  0.4709932E-002  0.4531164E+03  0.7546771E-02  0.1026797E+00
         21   -1    0    0  502  501  0.00000000000E+00  0.00000000000E+00  0.82994041163E+03  0.82994041163E+03  0.00000000000E+00 0. -1.
         21   -1    0    0  501  502 -0.00000000000E+00 -0.00000000000E+00 -0.61846143619E+02  0.61846143619E+02  0.00000000000E+00 0. -1.
      99926    2    1    2    0    0  0.00000000000E+00  0.00000000000E+00  0.76809426801E+03  0.89178655525E+03  0.45311638193E+03 0.  0.
      99925    2    3    3    0    0  0.72605797650E+02  0.29888271569E+02  0.63959614147E+03  0.69602091155E+03  0.26305317807E+03 0.  0.
         25    1    3    3    0    0 -0.72605797650E+02 -0.29888271569E+02  0.12849812654E+03  0.19576564370E+03  0.12509000000E+03 0.  0.
         25    1    4    4    0    0  0.44963661615E+02  0.57140884248E+01  0.22482125605E+03  0.26124028584E+03  0.12509000000E+03 0.  0.
         25    1    4    4    0    0  0.27642136034E+02  0.24174183145E+02  0.41477488542E+03  0.43478062571E+03  0.12509000000E+03 0.  0.
<mgrwt>
<rscale>  2 0.45311638E+03</rscale>
<asrwt>0</asrwt>
<pdfrwt beam="1">  1       21 0.12205005E+00 0.45311638E+03</pdfrwt>
<pdfrwt beam="2">  1       21 0.90950216E-02 0.45311638E+03</pdfrwt>
<totfact> 0.44239626E+04</totfact>
</mgrwt>
</event>
<event>
 7    0  0.4709932E-002  0.4556249E+03  0.7546771E-02  0.1026058E+00
         21   -1    0    0  502  501  0.00000000000E+00  0.00000000000E+00  0.61385443903E+02  0.61385443903E+02  0.00000000000E+00 0. -1.
         21   -1    0    0  501  502 -0.00000000000E+00 -0.00000000000E+00 -0.84545291489E+03  0.84545291489E+03  0.00000000000E+00 0. -1.
      99926    2    1    2    0    0 -0.71054273576E-14  0.00000000000E+00 -0.78406747099E+03  0.90683835880E+03  0.45562485656E+03 0.  0.
      99925    2    3    3    0    0  0.38789207517E+02  0.10722889405E+03 -0.49006460193E+03  0.56759238099E+03  0.26266929504E+03 0.  0.
         25    1    4    4    0    0  0.42172789943E+02  0.36214767320E+02 -0.29492533368E+03  0.32514383606E+03  0.12509000000E+03 0.  0.
         25    1    4    4    0    0 -0.33835824259E+01  0.71014126734E+02 -0.19513926826E+03  0.24244854494E+03  0.12509000000E+03 0.  0.
         25    1    3    3    0    0 -0.38789207517E+02 -0.10722889405E+03 -0.29400286906E+03  0.33924597780E+03  0.12509000000E+03 0.  0.
<mgrwt>
<rscale>  2 0.45562486E+03</rscale>
<asrwt>0</asrwt>
<pdfrwt beam="1">  1       21 0.90272710E-02 0.45562486E+03</pdfrwt>
<pdfrwt beam="2">  1       21 0.12433131E+00 0.45562486E+03</pdfrwt>
<totfact> 0.42729958E+04</totfact>
</mgrwt>
</event>
<event>
 7    0  0.4709932E-002  0.4589923E+03  0.7546771E-02  0.1025074E+00
         21   -1    0    0  502  501  0.00000000000E+00  0.00000000000E+00  0.41410226659E+03  0.41410226659E+03  0.00000000000E+00 0. -1.
         21   -1    0    0  501  502 -0.00000000000E+00 -0.00000000000E+00 -0.12718715641E+03  0.12718715641E+03  0.00000000000E+00 0. -1.
      99926    2    1    2    0    0  0.00000000000E+00 -0.35527136788E-14  0.28691511017E+03  0.54128942300E+03  0.45899233001E+03 0.  0.
      99925    2    3    3    0    0  0.10575762252E+03 -0.17662649873E+02  0.12499435758E+03  0.31028621493E+03  0.26297775919E+03 0.  0.
         25    1    3    3    0    0 -0.10575762252E+03  0.17662649873E+02  0.16192075259E+03  0.23100320807E+03  0.12509000000E+03 0.  0.
         25    1    4    4    0    0  0.66067306577E+02 -0.44552988105E+02  0.48614805496E+02  0.15607935533E+03  0.12509000000E+03 0.  0.
         25    1    4    4    0    0  0.39690315940E+02  0.26890338232E+02  0.76379552087E+02  0.15420685960E+03  0.12509000000E+03 0.  0.
<mgrwt>
<rscale>  2 0.45899233E+03</rscale>
<asrwt>0</asrwt>
<pdfrwt beam="1">  1       21 0.60897392E-01 0.45899233E+03</pdfrwt>
<pdfrwt beam="2">  1       21 0.18703994E-01 0.45899233E+03</pdfrwt>
<totfact> 0.60511218E+04</totfact>
</mgrwt>
</event>
<event>
 7    0  0.4709932E-002  0.4553471E+03  0.7546771E-02  0.1026139E+00
         21   -1    0    0  502  501  0.00000000000E+00  0.00000000000E+00  0.30951719528E+03  0.30951719528E+03  0.00000000000E+00 0. -1.
         21   -1    0    0  501  502 -0.00000000000E+00 -0.00000000000E+00 -0.16747132674E+03  0.16747132674E+03  0.00000000000E+00 0. -1.
      99926    2    1    2    0    0  0.35527136788E-14  0.00000000000E+00  0.14204586854E+03  0.47698852203E+03  0.45534714381E+03 0.  0.
      99925    2    3    3    0    0  0.13985971605E+02 -0.84014678646E+02  0.16789489753E+03  0.32346408088E+03  0.26303277623E+03 0.  0.
         25    1    4    4    0    0 -0.32943278420E+02 -0.48955153853E+02  0.86840469493E+02  0.16331148742E+03  0.12509000000E+03 0.  0.
         25    1    4    4    0    0  0.46929250026E+02 -0.35059524793E+02  0.81054428038E+02  0.16015259346E+03  0.12509000000E+03 0.  0.
         25    1    3    3    0    0 -0.13985971605E+02  0.84014678646E+02 -0.25849028994E+02  0.15352444115E+03  0.12509000000E+03 0.  0.
<mgrwt>
<rscale>  2 0.45534714E+03</rscale>
<asrwt>0</asrwt>
<pdfrwt beam="1">  1       21 0.45517235E-01 0.45534714E+03</pdfrwt>
<pdfrwt beam="2">  1       21 0.24628136E-01 0.45534714E+03</pdfrwt>
<totfact> 0.66735917E+04</totfact>
</mgrwt>
</event>
<event>
 7    0  0.4709932E-002  0.4626975E+03  0.7546771E-02  0.1024002E+00
         21   -1    0    0  502  501  0.00000000000E+00  0.00000000000E+00  0.86360431468E+03  0.86360431468E+03  0.00000000000E+00 0. -1.
         21   -1    0    0  501  502 -0.00000000000E+00 -0.00000000000E+00 -0.61975423020E+02  0.61975423020E+02  0.00000000000E+00 0. -1.
      99926    2    1    2    0    0  0.88817841970E-15  0.71054273576E-14  0.80162889166E+03  0.92557973770E+03  0.46269749394E+03 0.  0.
      99925    2    3    3    0    0  0.56116643637E+01 -0.63928643161E+02  0.29809104442E+03  0.40278318655E+03  0.26316850573E+03 0.  0.
         25    1    3    3    0    0 -0.56116643637E+01  0.63928643161E+02  0.50353784724E+03  0.52279655115E+03  0.12509000000E+03 0.  0.
         25    1    4    4    0    0 -0.43355262817E+01 -0.51904757802E+02  0.20640234738E+03  0.24690552399E+03  0.12509000000E+03 0.  0.
         25    1    4    4    0    0  0.99471906455E+01 -0.12023885360E+02  0.91688697040E+02  0.15587766256E+03  0.12509000000E+03 0.  0.
<mgrwt>
<rscale>  2 0.46269749E+03</rscale>
<asrwt>0</asrwt>
<pdfrwt beam="1">  1       21 0.12700063E+00 0.46269749E+03</pdfrwt>
<pdfrwt beam="2">  1       21 0.91140333E-02 0.46269749E+03</pdfrwt>
<totfact> 0.39699983E+04</totfact>
</mgrwt>
</event>
<event>
 7    0  0.4709932E-002  0.5134568E+03  0.7546771E-02  0.1010325E+00
         21   -1    0    0  502  501  0.00000000000E+00  0.00000000000E+00  0.35375016771E+03  0.35375016771E+03  0.00000000000E+00 0.  1.
         21   -1    0    0  501  502 -0.00000000000E+00 -0.00000000000E+00 -0.18631643449E+03  0.18631643449E+03  0.00000000000E+00 0.  1.
      99926    2    1    2    0    0 -0.71054273576E-14  0.00000000000E+00  0.16743373321E+03  0.54006660220E+03  0.51345679448E+03 0.  0.
      99925    2    3    3    0    0 -0.38601849179E+02 -0.14856875988E+03  0.15461701647E+03  0.34163637391E+03  0.26314674807E+03 0.  0.
         25    1    3    3    0    0  0.38601849179E+02  0.14856875988E+03  0.12816716740E+02  0.19843022829E+03  0.12509000000E+03 0.  0.
         25    1    4    4    0    0 -0.46134625825E+01 -0.11645420578E+03  0.91801074570E+02  0.19405620700E+03  0.12509000000E+03 0.  0.
         25    1    4    4    0    0 -0.33988386596E+02 -0.32114554099E+02  0.62815941904E+02  0.14758016691E+03  0.12509000000E+03 0.  0.
<mgrwt>
<rscale>  2 0.51345679E+03</rscale>
<asrwt>0</asrwt>
<pdfrwt beam="1">  1       21 0.52022083E-01 0.51345679E+03</pdfrwt>
<pdfrwt beam="2">  1       21 0.27399476E-01 0.51345679E+03</pdfrwt>
<totfact> 0.40326859E+04</totfact>
</mgrwt>
</event>
<event>
 7    0  0.4709932E-002  0.4689378E+03  0.7546771E-02  0.1022220E+00
         21   -1    0    0  502  501  0.00000000000E+00  0.00000000000E+00  0.35815406851E+02  0.35815406851E+02  0.00000000000E+00 0.  1.
         21   -1    0    0  501  502 -0.00000000000E+00 -0.00000000000E+00 -0.15349724048E+04  0.15349724048E+04  0.00000000000E+00 0.  1.
      99926    2    1    2    0    0  0.00000000000E+00  0.00000000000E+00 -0.14991569980E+04  0.15707878117E+04  0.46893778344E+03 0.  0.
      99925    2    3    3    0    0 -0.92914705338E+02  0.10245541434E+02 -0.12139578562E+04  0.12456352749E+04  0.26301225813E+03 0.  0.
         25    1    3    3    0    0  0.92914705338E+02 -0.10245541434E+02 -0.28519914180E+03  0.32515253677E+03  0.12509000000E+03 0.  0.
         25    1    4    4    0    0 -0.19403901183E+02  0.34627391291E+01 -0.42686095108E+03  0.44524856159E+03  0.12509000000E+03 0.  0.
         25    1    4    4    0    0 -0.73510804156E+02  0.67828023047E+01 -0.78709690512E+03  0.80038671334E+03  0.12509000000E+03 0.  0.
<mgrwt>
<rscale>  2 0.46893778E+03</rscale>
<asrwt>0</asrwt>
<pdfrwt beam="1">  1       21 0.52669727E-02 0.46893778E+03</pdfrwt>
<pdfrwt beam="2">  1       21 0.22573119E+00 0.46893778E+03</pdfrwt>
<totfact> 0.19858364E+04</totfact>
</mgrwt>
</event>
<event>
 7    0  0.4709932E-002  0.4588532E+03  0.7546771E-02  0.1025114E+00
         21   -1    0    0  502  501  0.00000000000E+00  0.00000000000E+00  0.44081932272E+03  0.44081932272E+03  0.00000000000E+00 0. -1.
         21   -1    0    0  501  502 -0.00000000000E+00 -0.00000000000E+00 -0.11940621121E+03  0.11940621121E+03  0.00000000000E+00 0. -1.
      99926    2    1    2    0    0  0.88817841970E-15  0.00000000000E+00  0.32141311152E+03  0.56022553393E+03  0.45885320159E+03 0.  0.
      99925    2    3    3    0    0 -0.53688382535E+01 -0.25536820506E+02  0.34053059952E+03  0.43102050279E+03  0.26293845476E+03 0.  0.
         25    1    4    4    0    0  0.34400151533E+02 -0.97679104942E+01  0.19489089096E+03  0.23432616153E+03  0.12509000000E+03 0.  0.
         25    1    3    3    0    0  0.53688382535E+01  0.25536820506E+02 -0.19117487999E+02  0.12920503114E+03  0.12509000000E+03 0.  0.
         25    1    4    4    0    0 -0.39768989787E+02 -0.15768910011E+02  0.14563970856E+03  0.19669434125E+03  0.12509000000E+03 0.  0.
<mgrwt>
<rscale>  2 0.45885320E+03</rscale>
<asrwt>0</asrwt>
<pdfrwt beam="1">  1       21 0.64826371E-01 0.45885320E+03</pdfrwt>
<pdfrwt beam="2">  1       21 0.17559737E-01 0.45885320E+03</pdfrwt>
<totfact> 0.59365645E+04</totfact>
</mgrwt>
</event>
<event>
 7    0  0.4709932E-002  0.4539388E+03  0.7546771E-02  0.1026554E+00
         21   -1    0    0  502  501  0.00000000000E+00  0.00000000000E+00  0.40454996245E+03  0.40454996245E+03  0.00000000000E+00 0. -1.
         21   -1    0    0  501  502 -0.00000000000E+00 -0.00000000000E+00 -0.12733930286E+03  0.12733930286E+03  0.00000000000E+00 0. -1.
      99926    2    1    2    0    0 -0.35527136788E-14  0.71054273576E-14  0.27721065959E+03  0.53188926531E+03  0.45393880728E+03 0.  0.
      99925    2    3    3    0    0  0.18266626728E+02 -0.37215370649E+02  0.52432665900E+02  0.27132965982E+03  0.26296757667E+03 0.  0.
         25    1    3    3    0    0 -0.18266626728E+02  0.37215370649E+02  0.22477799369E+03  0.26055960549E+03  0.12509000000E+03 0.  0.
         25    1    4    4    0    0  0.32965840212E+02  0.12526183556E+02  0.36397642891E+02  0.13496647140E+03  0.12509000000E+03 0.  0.
         25    1    4    4    0    0 -0.14699213484E+02 -0.49741554205E+02  0.16035023010E+02  0.13636318842E+03  0.12509000000E+03 0.  0.
<mgrwt>
<rscale>  2 0.45393881E+03</rscale>
<asrwt>0</asrwt>
<pdfrwt beam="1">  1       21 0.59492641E-01 0.45393881E+03</pdfrwt>
<pdfrwt beam="2">  1       21 0.18726368E-01 0.45393881E+03</pdfrwt>
<totfact> 0.63612033E+04</totfact>
</mgrwt>
</event>
<event>
 7    0  0.4709932E-002  0.4523902E+03  0.7546771E-02  0.1027012E+00
         21   -1    0    0  502  501  0.00000000000E+00  0.00000000000E+00  0.17064594009E+03  0.17064594009E+03  0.00000000000E+00 0.  1.
         21   -1    0    0  501  502 -0.00000000000E+00 -0.00000000000E+00 -0.29982681722E+03  0.29982681722E+03  0.00000000000E+00 0.  1.
      99926    2    1    2    0    0  0.35527136788E-14  0.00000000000E+00 -0.12918087713E+03  0.47047275731E+03  0.45239022575E+03 0.  0.
      99925    2    3    3    0    0 -0.17386544383E+02 -0.21569906894E+02 -0.19238743583E+03  0.32760873115E+03  0.26371765669E+03 0.  0.
         25    1    4    4    0    0  0.20035613953E+02  0.96199128689E+01 -0.65719422873E+02  0.14304027123E+03  0.12509000000E+03 0.  0.
         25    1    3    3    0    0  0.17386544383E+02  0.21569906894E+02  0.63206558695E+02  0.14286402616E+03  0.12509000000E+03 0.  0.
         25    1    4    4    0    0 -0.37422158336E+02 -0.31189819763E+02 -0.12666801295E+03  0.18456845992E+03  0.12509000000E+03 0.  0.
<mgrwt>
<rscale>  2 0.45239023E+03</rscale>
<asrwt>0</asrwt>
<pdfrwt beam="1">  1       21 0.25094991E-01 0.45239023E+03</pdfrwt>
<pdfrwt beam="2">  1       21 0.44092178E-01 0.45239023E+03</pdfrwt>
<totfact> 0.68814449E+04</totfact>
</mgrwt>
</event>
<event>
 7    0  0.4709932E-002  0.4581353E+03  0.7546771E-02  0.1025323E+00
         21   -1    0    0  502  501  0.00000000000E+00  0.00000000000E+00  0.11127290339E+04  0.11127290339E+04  0.00000000000E+00 0. -1.
         21   -1    0    0  501  502 -0.00000000000E+00 -0.00000000000E+00 -0.47156128902E+02  0.47156128902E+02  0.00000000000E+00 0. -1.
      99926    2    1    2    0    0  0.00000000000E+00  0.00000000000E+00  0.10655729050E+04  0.11598851628E+04  0.45813532391E+03 0.  0.
      99925    2    3    3    0    0 -0.11224893701E+03 -0.29322962444E+02  0.67547687465E+03  0.73411282812E+03  0.26304557824E+03 0.  0.
         25    1    4    4    0    0 -0.97222294935E+02 -0.74381797778E+01  0.34307642854E+03  0.37796354993E+03  0.12509000000E+03 0.  0.
         25    1    4    4    0    0 -0.15026642079E+02 -0.21884782666E+02  0.33240044611E+03  0.35614927819E+03  0.12509000000E+03 0.  0.
         25    1    3    3    0    0  0.11224893701E+03  0.29322962444E+02  0.39009603032E+03  0.42577233466E+03  0.12509000000E+03 0.  0.
<mgrwt>
<rscale>  2 0.45813532E+03</rscale>
<asrwt>0</asrwt>
<pdfrwt beam="1">  1       21 0.16363661E+00 0.45813532E+03</pdfrwt>
<pdfrwt beam="2">  1       21 0.69347255E-02 0.45813532E+03</pdfrwt>
<totfact> 0.32648985E+04</totfact>
</mgrwt>
</event>
<event>
 7    0  0.4709932E-002  0.4473829E+03  0.7546771E-02  0.1028505E+00
         21   -1    0    0  502  501  0.00000000000E+00  0.00000000000E+00  0.11040893143E+03  0.11040893143E+03  0.00000000000E+00 0. -1.
         21   -1    0    0  501  502 -0.00000000000E+00 -0.00000000000E+00 -0.45320482129E+03  0.45320482129E+03  0.00000000000E+00 0. -1.
      99926    2    1    2    0    0  0.35527136788E-14  0.00000000000E+00 -0.34279588986E+03  0.56361375271E+03  0.44738287869E+03 0.  0.
      99925    2    3    3    0    0 -0.17211042748E+02  0.93908958063E+02 -0.15964755436E+03  0.32214753708E+03  0.26301441336E+03 0.  0.
         25    1    3    3    0    0  0.17211042748E+02 -0.93908958063E+02 -0.18314833550E+03  0.24146621564E+03  0.12509000000E+03 0.  0.
         25    1    4    4    0    0 -0.21042130417E+02  0.46753463277E+02 -0.12469938710E+03  0.18391873973E+03  0.12509000000E+03 0.  0.
         25    1    4    4    0    0  0.38310876684E+01  0.47155494785E+02 -0.34948167259E+02  0.13822879735E+03  0.12509000000E+03 0.  0.
<mgrwt>
<rscale>  2 0.44738288E+03</rscale>
<asrwt>0</asrwt>
<pdfrwt beam="1">  1       21 0.16236608E-01 0.44738288E+03</pdfrwt>
<pdfrwt beam="2">  1       21 0.66647767E-01 0.44738288E+03</pdfrwt>
<totfact> 0.64791743E+04</totfact>
</mgrwt>
</event>
<event>
 7    0  0.4709932E-002  0.4549991E+03  0.7546771E-02  0.1026242E+00
         21   -1    0    0  502  501  0.00000000000E+00  0.00000000000E+00  0.84225231495E+02  0.84225231495E+02  0.00000000000E+00 0.  1.
         21   -1    0    0  501  502 -0.00000000000E+00 -0.00000000000E+00 -0.61449561805E+03  0.61449561805E+03  0.00000000000E+00 0.  1.
      99926    2    1    2    0    0  0.88817841970E-15  0.71054273576E-14 -0.53027038655E+03  0.69872084954E+03  0.45499905794E+03 0.  0.
      99925    2    3    3    0    0  0.11090998976E+01 -0.41800935864E+02 -0.49560551460E+03  0.56234742915E+03  0.26241428435E+03 0.  0.
         25    1    4    4    0    0 -0.81276459933E+01 -0.55221371784E+02 -0.21859602094E+03  0.25796741461E+03  0.12509000000E+03 0.  0.
         25    1    3    3    0    0 -0.11090998976E+01  0.41800935864E+02 -0.34664871959E+02  0.13637342039E+03  0.12509000000E+03 0.  0.
         25    1    4    4    0    0  0.92367458909E+01  0.13420435920E+02 -0.27700949366E+03  0.30438001454E+03  0.12509000000E+03 0.  0.
<mgrwt>
<rscale>  2 0.45499906E+03</rscale>
<asrwt>0</asrwt>
<pdfrwt beam="1">  1       21 0.12386064E-01 0.45499906E+03</pdfrwt>
<pdfrwt beam="2">  1       21 0.90367002E-01 0.45499906E+03</pdfrwt>
<totfact> 0.52972859E+04</totfact>
</mgrwt>
</event>
<event>
 7    0  0.4709932E-002  0.4552446E+03  0.7546771E-02  0.1026170E+00
         21   -1    0    0  502  501  0.00000000000E+00  0.00000000000E+00  0.59580620578E+02  0.59580620578E+02  0.00000000000E+00 0.  1.
         21   -1    0    0  501  502 -0.00000000000E+00 -0.00000000000E+00 -0.86961007555E+03  0.86961007555E+03  0.00000000000E+00 0.  1.
      99926    2    1    2    0    0  0.00000000000E+00  0.00000000000E+00 -0.81002945497E+03  0.92919069613E+03  0.45524458464E+03 0.  0.
      99925    2    3    3    0    0  0.17756854489E+02 -0.99384001997E+02 -0.40473064143E+03  0.49317794162E+03  0.26310664046E+03 0.  0.
         25    1    3    3    0    0 -0.17756854489E+02  0.99384001997E+02 -0.40529881355E+03  0.43601275451E+03  0.12509000000E+03 0.  0.
         25    1    4    4    0    0  0.24487149335E+02 -0.89980593600E+02 -0.21583549200E+03  0.26632422987E+03  0.12509000000E+03 0.  0.
         25    1    4    4    0    0 -0.67302948456E+01 -0.94034083974E+01 -0.18889514942E+03  0.22685371175E+03  0.12509000000E+03 0.  0.
<mgrwt>
<rscale>  2 0.45524458E+03</rscale>
<asrwt>0</asrwt>
<pdfrwt beam="1">  1       21 0.87618569E-02 0.45524458E+03</pdfrwt>
<pdfrwt beam="2">  1       21 0.12788382E+00 0.45524458E+03</pdfrwt>
<totfact> 0.41914916E+04</totfact>
</mgrwt>
</event>
<event>
 7    0  0.4709932E-002  0.4509986E+03  0.7546771E-02  0.1027425E+00
         21   -1    0    0  502  501  0.00000000000E+00  0.00000000000E+00  0.78622500542E+03  0.78622500542E+03  0.00000000000E+00 0.  1.
         21   -1    0    0  501  502 -0.00000000000E+00 -0.00000000000E+00 -0.64676063346E+02  0.64676063346E+02  0.00000000000E+00 0.  1.
      99926    2    1    2    0    0  0.71054273576E-14 -0.33306690739E-14  0.72154894208E+03  0.85090106877E+03  0.45099861754E+03 0.  0.
      99925    2    3    3    0    0 -0.53642143668E+02  0.18454253961E+01  0.27690037980E+03  0.38588414735E+03  0.26334743148E+03 0.  0.
         25    1    4    4    0    0 -0.17096231381E+02 -0.32241559286E+02  0.16834411847E+03  0.21288271324E+03  0.12509000000E+03 0.  0.
         25    1    3    3    0    0  0.53642143668E+02 -0.18454253961E+01  0.44464856228E+03  0.46501692142E+03  0.12509000000E+03 0.  0.
         25    1    4    4    0    0 -0.36545912286E+02  0.34086984682E+02  0.10855626133E+03  0.17300143411E+03  0.12509000000E+03 0.  0.
<mgrwt>
<rscale>  2 0.45099862E+03</rscale>
<asrwt>0</asrwt>
<pdfrwt beam="1">  1       21 0.11562132E+00 0.45099862E+03</pdfrwt>
<pdfrwt beam="2">  1       21 0.95111863E-02 0.45099862E+03</pdfrwt>
<totfact> 0.46852497E+04</totfact>
</mgrwt>
</event>
<event>
 7    0  0.4709932E-002  0.4610097E+03  0.7546771E-02  0.1024489E+00
         21   -1    0    0  502  501  0.00000000000E+00  0.00000000000E+00  0.52885339029E+03  0.52885339029E+03  0.00000000000E+00 0. -1.
         21   -1    0    0  501  502 -0.00000000000E+00 -0.00000000000E+00 -0.10046731826E+03  0.10046731826E+03  0.00000000000E+00 0. -1.
      99926    2    1    2    0    0  0.00000000000E+00  0.00000000000E+00  0.42838607203E+03  0.62932070856E+03  0.46100968266E+03 0.  0.
      99925    2    3    3    0    0  0.30494782855E+02  0.11284693472E+03  0.24062316632E+03  0.37522076893E+03  0.26310977710E+03 0.  0.
         25    1    3    3    0    0 -0.30494782855E+02 -0.11284693472E+03  0.18776290571E+03  0.25409993963E+03  0.12509000000E+03 0.  0.
         25    1    4    4    0    0  0.55003114694E+01  0.87554357194E+02  0.16461207945E+03  0.22458999019E+03  0.12509000000E+03 0.  0.
         25    1    4    4    0    0  0.24994471386E+02  0.25292577528E+02  0.76011086867E+02  0.15063077874E+03  0.12509000000E+03 0.  0.
<mgrwt>
<rscale>  2 0.46100968E+03</rscale>
<asrwt>0</asrwt>
<pdfrwt beam="1">  1       21 0.77772556E-01 0.46100968E+03</pdfrwt>
<pdfrwt beam="2">  1       21 0.14774606E-01 0.46100968E+03</pdfrwt>
<totfact> 0.54287043E+04</totfact>
</mgrwt>
</event>
<event>
 7    0  0.4709932E-002  0.4549067E+03  0.7546771E-02  0.1026269E+00
         21   -1    0    0  502  501  0.00000000000E+00  0.00000000000E+00  0.26048896575E+02  0.26048896575E+02  0.00000000000E+00 0.  1.
         21   -1    0    0  501  502 -0.00000000000E+00 -0.00000000000E+00 -0.19860740108E+04  0.19860740108E+04  0.00000000000E+00 0.  1.
      99926    2    1    2    0    0  0.00000000000E+00  0.00000000000E+00 -0.19600251142E+04  0.20121229074E+04  0.45490674427E+03 0.  0.
      99925    2    3    3    0    0 -0.10677079824E+03  0.18977300622E+02 -0.10921475879E+04  0.11285964222E+04  0.26302735416E+03 0.  0.
         25    1    4    4    0    0 -0.21800480559E+02 -0.71058523664E+01 -0.58878739867E+03  0.60236522395E+03  0.12509000000E+03 0.  0.
         25    1    3    3    0    0  0.10677079824E+03 -0.18977300622E+02 -0.86787752627E+03  0.88352648518E+03  0.12509000000E+03 0.  0.
         25    1    4    4    0    0 -0.84970317684E+02  0.26083152988E+02 -0.50336018926E+03  0.52623119823E+03  0.12509000000E+03 0.  0.
<mgrwt>
<rscale>  2 0.45490674E+03</rscale>
<asrwt>0</asrwt>
<pdfrwt beam="1">  1       21 0.38307193E-02 0.45490674E+03</pdfrwt>
<pdfrwt beam="2">  1       21 0.29206977E+00 0.45490674E+03</pdfrwt>
<totfact> 0.13522499E+04</totfact>
</mgrwt>
</event>
<event>
 7    0  0.4709932E-002  0.4495591E+03  0.7546771E-02  0.1027854E+00
         21   -1    0    0  502  501  0.00000000000E+00  0.00000000000E+00  0.40207997107E+03  0.40207997107E+03  0.00000000000E+00 0.  1.
         21   -1    0    0  501  502 -0.00000000000E+00 -0.00000000000E+00 -0.12566117003E+03  0.12566117003E+03  0.00000000000E+00 0.  1.
      99926    2    1    2    0    0 -0.44408920985E-15  0.00000000000E+00  0.27641880104E+03  0.52774114111E+03  0.44955907115E+03 0.  0.
      99925    2    3    3    0    0 -0.19613169052E+01  0.27374362311E+02  0.29736366396E+03  0.39797443560E+03  0.26306900286E+03 0.  0.
         25    1    4    4    0    0  0.13980677398E+02 -0.15811413627E+02  0.10920747648E+03  0.16738948940E+03  0.12509000000E+03 0.  0.
         25    1    3    3    0    0  0.19613169052E+01 -0.27374362311E+02 -0.20944862926E+02  0.12976670551E+03  0.12509000000E+03 0.  0.
         25    1    4    4    0    0 -0.15941994303E+02  0.43185775938E+02  0.18815618748E+03  0.23058494620E+03  0.12509000000E+03 0.  0.
<mgrwt>
<rscale>  2 0.44955907E+03</rscale>
<asrwt>0</asrwt>
<pdfrwt beam="1">  1       21 0.59129407E-01 0.44955907E+03</pdfrwt>
<pdfrwt beam="2">  1       21 0.18479584E-01 0.44955907E+03</pdfrwt>
<totfact> 0.66165978E+04</totfact>
</mgrwt>
</event>
<event>
 7    0  0.4709932E-002  0.4620599E+03  0.7546771E-02  0.1024185E+00
         21   -1    0    0  502  501  0.00000000000E+00  0.00000000000E+00  0.70331753520E+02  0.70331753520E+02  0.00000000000E+00 0. -1.
         21   -1    0    0  501  502 -0.00000000000E+00 -0.00000000000E+00 -0.75890083215E+03  0.75890083215E+03  0.00000000000E+00 0. -1.
      99926    2    1    2    0    0  0.00000000000E+00 -0.35527136788E-14 -0.68856907863E+03  0.82923258567E+03  0.46205985012E+03 0.  0.
      99925    2    3    3    0    0  0.93441170875E+02  0.26938086271E+02 -0.30523660506E+03  0.41444564482E+03  0.26294275905E+03 0.  0.
         25    1    3    3    0    0 -0.93441170875E+02 -0.26938086271E+02 -0.38333247357E+03  0.41478694085E+03  0.12509000000E+03 0.  0.
         25    1    4    4    0    0  0.38655376422E+02 -0.60739398144E+01 -0.96200489506E+02  0.16258281936E+03  0.12509000000E+03 0.  0.
         25    1    4    4    0    0  0.54785794453E+02  0.33012026086E+02 -0.20903611555E+03  0.25186282545E+03  0.12509000000E+03 0.  0.
<mgrwt>
<rscale>  2 0.46205985E+03</rscale>
<asrwt>0</asrwt>
<pdfrwt beam="1">  1       21 0.10342904E-01 0.46205985E+03</pdfrwt>
<pdfrwt beam="2">  1       21 0.11160307E+00 0.46205985E+03</pdfrwt>
<totfact> 0.43900388E+04</totfact>
</mgrwt>
</event>
<event>
 7    0  0.4709932E-002  0.4444568E+03  0.7546771E-02  0.1029388E+00
         21   -1    0    0  502  501  0.00000000000E+00  0.00000000000E+00  0.13787235293E+04  0.13787235293E+04  0.00000000000E+00 0.  1.
         21   -1    0    0  501  502 -0.00000000000E+00 -0.00000000000E+00 -0.35819702785E+02  0.35819702785E+02  0.00000000000E+00 0.  1.
      99926    2    1    2    0    0  0.00000000000E+00 -0.14210854715E-13  0.13429038265E+04  0.14145432321E+04  0.44445682374E+03 0.  0.
      99925    2    3    3    0    0  0.25509036898E+02 -0.96769321395E+02  0.93060806821E+03  0.97221946725E+03  0.26299107085E+03 0.  0.
         25    1    4    4    0    0 -0.75060538465E+01 -0.83917451652E+02  0.46906877387E+03  0.49271848175E+03  0.12509000000E+03 0.  0.
         25    1    4    4    0    0  0.33015090745E+02 -0.12851869742E+02  0.46153929434E+03  0.47950098550E+03  0.12509000000E+03 0.  0.
         25    1    3    3    0    0 -0.25509036898E+02  0.96769321395E+02  0.41229575831E+03  0.44232376484E+03  0.12509000000E+03 0.  0.
<mgrwt>
<rscale>  2 0.44445682E+03</rscale>
<asrwt>0</asrwt>
<pdfrwt beam="1">  1       21 0.20275342E+00 0.44445682E+03</pdfrwt>
<pdfrwt beam="2">  1       21 0.52676043E-02 0.44445682E+03</pdfrwt>
<totfact> 0.28186568E+04</totfact>
</mgrwt>
</event>
<event>
 7    0  0.4709932E-002  0.4311265E+03  0.7546771E-02  0.1033505E+00
         21   -1    0    0  502  501  0.00000000000E+00  0.00000000000E+00  0.18993368655E+03  0.18993368655E+03  0.00000000000E+00 0. -1.
         21   -1    0    0  501  502 -0.00000000000E+00 -0.00000000000E+00 -0.24465123780E+03  0.24465123780E+03  0.00000000000E+00 0. -1.
      99926    2    1    2    0    0  0.00000000000E+00  0.00000000000E+00 -0.54717551255E+02  0.43458492435E+03  0.43112648498E+03 0.  0.
      99925    2    3    3    0    0  0.84312918546E+02  0.24580835729E+02 -0.21679212444E+02  0.27821380921E+03  0.26309703469E+03 0.  0.
         25    1    3    3    0    0 -0.84312918546E+02 -0.24580835729E+02 -0.33038338812E+02  0.15637111514E+03  0.12509000000E+03 0.  0.
         25    1    4    4    0    0  0.23276365100E+02  0.42723626781E+02 -0.30260596548E+02  0.13758746041E+03  0.12509000000E+03 0.  0.
         25    1    4    4    0    0  0.61036553446E+02 -0.18142791052E+02  0.85813841048E+01  0.14062634880E+03  0.12509000000E+03 0.  0.
<mgrwt>
<rscale>  2 0.43112648E+03</rscale>
<asrwt>0</asrwt>
<pdfrwt beam="1">  1       21 0.27931425E-01 0.43112648E+03</pdfrwt>
<pdfrwt beam="2">  1       21 0.35978123E-01 0.43112648E+03</pdfrwt>
<totfact> 0.85170467E+04</totfact>
</mgrwt>
</event>
<event>
 7    0  0.4709932E-002  0.4557481E+03  0.7546771E-02  0.1026022E+00
         21   -1    0    0  502  501  0.00000000000E+00  0.00000000000E+00  0.11246023180E+04  0.11246023180E+04  0.00000000000E+00 0.  1.
         21   -1    0    0  501  502 -0.00000000000E+00 -0.00000000000E+00 -0.46173286975E+02  0.46173286975E+02  0.00000000000E+00 0.  1.
      99926    2    1    2    0    0  0.00000000000E+00  0.00000000000E+00  0.10784290310E+04  0.11707756049E+04  0.45574811271E+03 0.  0.
      99925    2    3    3    0    0  0.75291843330E+02  0.91657646806E+01  0.89653082997E+03  0.93735037805E+03  0.26287892503E+03 0.  0.
         25    1    3    3    0    0 -0.75291843330E+02 -0.91657646806E+01  0.18189820101E+03  0.23342522689E+03  0.12509000000E+03 0.  0.
         25    1    4    4    0    0  0.62357382486E+02  0.24693726219E+02  0.38410482438E+03  0.40949022879E+03  0.12509000000E+03 0.  0.
         25    1    4    4    0    0  0.12934460843E+02 -0.15527961538E+02  0.51242600559E+03  0.52786014926E+03  0.12509000000E+03 0.  0.
<mgrwt>
<rscale>  2 0.45574811E+03</rscale>
<asrwt>0</asrwt>
<pdfrwt beam="1">  1       21 0.16538268E+00 0.45574811E+03</pdfrwt>
<pdfrwt beam="2">  1       21 0.67901900E-02 0.45574811E+03</pdfrwt>
<totfact> 0.32904012E+04</totfact>
</mgrwt>
</event>
<event>
 7    0  0.4709932E-002  0.4583119E+03  0.7546771E-02  0.1025272E+00
         21   -1    0    0  502  501  0.00000000000E+00  0.00000000000E+00  0.17818846176E+03  0.17818846176E+03  0.00000000000E+00 0.  1.
         21   -1    0    0  501  502 -0.00000000000E+00 -0.00000000000E+00 -0.29470168638E+03  0.29470168638E+03  0.00000000000E+00 0.  1.
      99926    2    1    2    0    0  0.71054273576E-14  0.00000000000E+00 -0.11651322462E+03  0.47289014814E+03  0.45831185965E+03 0.  0.
      99925    2    3    3    0    0  0.45271144996E+02 -0.80135624328E+02 -0.14643545252E+03  0.31473186452E+03  0.26294792248E+03 0.  0.
         25    1    4    4    0    0 -0.11301281759E+02 -0.55311812888E+02 -0.54580637933E+02  0.14769451497E+03  0.12509000000E+03 0.  0.
         25    1    4    4    0    0  0.56572426755E+02 -0.24823811440E+02 -0.91854814586E+02  0.16703734955E+03  0.12509000000E+03 0.  0.
         25    1    3    3    0    0 -0.45271144996E+02  0.80135624328E+02  0.29922227898E+02  0.15815828362E+03  0.12509000000E+03 0.  0.
<mgrwt>
<rscale>  2 0.45831186E+03</rscale>
<asrwt>0</asrwt>
<pdfrwt beam="1">  1       21 0.26204186E-01 0.45831186E+03</pdfrwt>
<pdfrwt beam="2">  1       21 0.43338482E-01 0.45831186E+03</pdfrwt>
<totfact> 0.65483885E+04</totfact>
</mgrwt>
</event>
<event>
 7    0  0.4709932E-002  0.4557648E+03  0.7546771E-02  0.1026017E+00
         21   -1    0    0  502  501  0.00000000000E+00  0.00000000000E+00  0.18903065254E+03  0.18903065254E+03  0.00000000000E+00 0. -1.
         21   -1    0    0  501  502 -0.00000000000E+00 -0.00000000000E+00 -0.27471938529E+03  0.27471938529E+03  0.00000000000E+00 0. -1.
      99926    2    1    2    0    0  0.00000000000E+00 -0.35527136788E-14 -0.85688732751E+02  0.46375003783E+03  0.45576478436E+03 0.  0.
      99925    2    3    3    0    0  0.88801905835E+02  0.22367255285E+02  0.14106871783E+02  0.27937882702E+03  0.26356678958E+03 0.  0.
         25    1    4    4    0    0  0.34008869243E+02  0.50430565958E+02  0.15485966093E+02  0.13995416541E+03  0.12509000000E+03 0.  0.
         25    1    3    3    0    0 -0.88801905835E+02 -0.22367255285E+02 -0.99795604534E+02  0.18437121080E+03  0.12509000000E+03 0.  0.
         25    1    4    4    0    0  0.54793036592E+02 -0.28063310673E+02 -0.13790943099E+01  0.13942466161E+03  0.12509000000E+03 0.  0.
<mgrwt>
<rscale>  2 0.45576478E+03</rscale>
<asrwt>0</asrwt>
<pdfrwt beam="1">  1       21 0.27798626E-01 0.45576478E+03</pdfrwt>
<pdfrwt beam="2">  1       21 0.40399909E-01 0.45576478E+03</pdfrwt>
<totfact> 0.67491800E+04</totfact>
</mgrwt>
</event>
<event>
 7    0  0.4709932E-002  0.4607597E+03  0.7546771E-02  0.1024561E+00
         21   -1    0    0  502  501  0.00000000000E+00  0.00000000000E+00  0.50777338551E+03  0.50777338551E+03  0.00000000000E+00 0.  1.
         21   -1    0    0  501  502 -0.00000000000E+00 -0.00000000000E+00 -0.10452471081E+03  0.10452471081E+03  0.00000000000E+00 0.  1.
      99926    2    1    2    0    0  0.00000000000E+00  0.00000000000E+00  0.40324867470E+03  0.61229809631E+03  0.46075966089E+03 0.  0.
      99925    2    3    3    0    0  0.31386874408E+02  0.66651798568E+02  0.37556329239E+03  0.46450910271E+03  0.26323624706E+03 0.  0.
         25    1    4    4    0    0  0.21514928204E+02  0.55503151707E+02  0.25467619143E+03  0.28991544037E+03  0.12509000000E+03 0.  0.
         25    1    4    4    0    0  0.98719462036E+01  0.11148646861E+02  0.12088710097E+03  0.17459366234E+03  0.12509000000E+03 0.  0.
         25    1    3    3    0    0 -0.31386874408E+02 -0.66651798568E+02  0.27685382310E+02  0.14778899361E+03  0.12509000000E+03 0.  0.
<mgrwt>
<rscale>  2 0.46075966E+03</rscale>
<asrwt>0</asrwt>
<pdfrwt beam="1">  1       21 0.74672556E-01 0.46075966E+03</pdfrwt>
<pdfrwt beam="2">  1       21 0.15371281E-01 0.46075966E+03</pdfrwt>
<totfact> 0.55365513E+04</totfact>
</mgrwt>
</event>
<event>
 7    0  0.4709932E-002  0.4582968E+03  0.7546771E-02  0.1025276E+00
         21   -1    0    0  502  501  0.00000000000E+00  0.00000000000E+00  0.65421592782E+02  0.65421592782E+02  0.00000000000E+00 0.  1.
         21   -1    0    0  501  502 -0.00000000000E+00 -0.00000000000E+00 -0.80262465433E+03  0.80262465433E+03  0.00000000000E+00 0.  1.
      99926    2    1    2    0    0 -0.71054273576E-14  0.14210854715E-13 -0.73720306155E+03  0.86804624711E+03  0.45829677412E+03 0.  0.
      99925    2    3    3    0    0  0.62788384311E+02 -0.97740231634E+02 -0.47482100397E+03  0.55501687737E+03  0.26285588117E+03 0.  0.
         25    1    4    4    0    0  0.61657665461E+02 -0.74131048061E+02 -0.22891530517E+03  0.27811293576E+03  0.12509000000E+03 0.  0.
         25    1    3    3    0    0 -0.62788384311E+02  0.97740231634E+02 -0.26238205758E+03  0.31302936974E+03  0.12509000000E+03 0.  0.
         25    1    4    4    0    0  0.11307188508E+01 -0.23609183573E+02 -0.24590569881E+03  0.27690394161E+03  0.12509000000E+03 0.  0.
<mgrwt>
<rscale>  2 0.45829677E+03</rscale>
<asrwt>0</asrwt>
<pdfrwt beam="1">  1       21 0.96208226E-02 0.45829677E+03</pdfrwt>
<pdfrwt beam="2">  1       21 0.11803304E+00 0.45829677E+03</pdfrwt>
<totfact> 0.43506603E+04</totfact>
</mgrwt>
</event>
<event>
 7    0  0.4709932E-002  0.4555408E+03  0.7546771E-02  0.1026082E+00
         21   -1    0    0  502  501  0.00000000000E+00  0.00000000000E+00  0.57217688240E+02  0.57217688240E+02  0.00000000000E+00 0.  1.
         21   -1    0    0  501  502 -0.00000000000E+00 -0.00000000000E+00 -0.90670145013E+03  0.90670145013E+03  0.00000000000E+00 0.  1.
      99926    2    1    2    0    0 -0.71054273576E-14  0.00000000000E+00 -0.84948376189E+03  0.96391913837E+03  0.45554082539E+03 0.  0.
      99925    2    3    3    0    0 -0.51861723024E+02  0.10057892698E+03 -0.56279727092E+03  0.63128959808E+03  0.26264049502E+03 0.  0.
         25    1    4    4    0    0 -0.31362481304E+00  0.63793185318E+02 -0.34241421815E+03  0.37008738663E+03  0.12509000000E+03 0.  0.
         25    1    4    4    0    0 -0.51548098211E+02  0.36785741657E+02 -0.22038305277E+03  0.26120221145E+03  0.12509000000E+03 0.  0.
         25    1    3    3    0    0  0.51861723024E+02 -0.10057892698E+03 -0.28668649097E+03  0.33262954029E+03  0.12509000000E+03 0.  0.
<mgrwt>
<rscale>  2 0.45554083E+03</rscale>
<asrwt>0</asrwt>
<pdfrwt beam="1">  1       21 0.84143658E-02 0.45554083E+03</pdfrwt>
<pdfrwt beam="2">  1       21 0.13333845E+00 0.45554083E+03</pdfrwt>
<totfact> 0.40411143E+04</totfact>
</mgrwt>
</event>
<event>
 7    0  0.4709932E-002  0.4520576E+03  0.7546771E-02  0.1027110E+00
         21   -1    0    0  502  501  0.00000000000E+00  0.00000000000E+00  0.75158595795E+02  0.75158595795E+02  0.00000000000E+00 0. -1.
         21   -1    0    0  501  502 -0.00000000000E+00 -0.00000000000E+00 -0.67974962472E+03  0.67974962472E+03  0.00000000000E+00 0. -1.
      99926    2    1    2    0    0  0.00000000000E+00  0.00000000000E+00 -0.60459102893E+03  0.75490822052E+03  0.45205763918E+03 0.  0.
      99925    2    3    3    0    0 -0.37921762727E+02 -0.93555625705E+02 -0.45574380323E+03  0.53583353032E+03  0.26310538352E+03 0.  0.
         25    1    4    4    0    0 -0.13263583076E+02 -0.20873158183E+02 -0.27412624121E+03  0.30233146642E+03  0.12509000000E+03 0.  0.
         25    1    3    3    0    0  0.37921762727E+02  0.93555625705E+02 -0.14884722570E+03  0.21907469020E+03  0.12509000000E+03 0.  0.
         25    1    4    4    0    0 -0.24658179650E+02 -0.72682467522E+02 -0.18161756202E+03  0.23350206390E+03  0.12509000000E+03 0.  0.
<mgrwt>
<rscale>  2 0.45205764E+03</rscale>
<asrwt>0</asrwt>
<pdfrwt beam="1">  1       21 0.11052735E-01 0.45205764E+03</pdfrwt>
<pdfrwt beam="2">  1       21 0.99963174E-01 0.45205764E+03</pdfrwt>
<totfact> 0.51194673E+04</totfact>
</mgrwt>
</event>
<event>
 7    0  0.4709932E-002  0.4370888E+03  0.7546771E-02  0.1031644E+00
         21   -1    0    0  502  501  0.00000000000E+00  0.00000000000E+00  0.76733196483E+03  0.76733196483E+03  0.00000000000E+00 0.  1.
         21   -1    0    0  501  502 -0.00000000000E+00 -0.00000000000E+00 -0.62243788217E+02  0.62243788217E+02  0.00000000000E+00 0.  1.
      99926    2    1    2    0    0  0.00000000000E+00  0.00000000000E+00  0.70508817662E+03  0.82957575305E+03  0.43708877044E+03 0.  0.
      99925    2    3    3    0    0  0.43615746439E+02  0.41982172540E+02  0.31380380610E+03  0.41434593373E+03  0.26371364758E+03 0.  0.
         25    1    3    3    0    0 -0.43615746439E+02 -0.41982172540E+02  0.39128437051E+03  0.41522981933E+03  0.12509000000E+03 0.  0.
         25    1    4    4    0    0  0.23333507069E+02  0.33785596273E+02  0.98663958245E+02  0.16452356617E+03  0.12509000000E+03 0.  0.
         25    1    4    4    0    0  0.20282239370E+02  0.81965762672E+01  0.21513984786E+03  0.24982236756E+03  0.12509000000E+03 0.  0.
<mgrwt>
<rscale>  2 0.43708877E+03</rscale>
<asrwt>0</asrwt>
<pdfrwt beam="1">  1       21 0.11284293E+00 0.43708877E+03</pdfrwt>
<pdfrwt beam="2">  1       21 0.91534987E-02 0.43708877E+03</pdfrwt>
<totfact> 0.53498516E+04</totfact>
</mgrwt>
</event>
<event>
 7    0  0.4709932E-002  0.4566358E+03  0.7546771E-02  0.1025761E+00
         21   -1    0    0  502  501  0.00000000000E+00  0.00000000000E+00  0.23539432783E+03  0.23539432783E+03  0.00000000000E+00 0. -1.
         21   -1    0    0  501  502 -0.00000000000E+00 -0.00000000000E+00 -0.22145419215E+03  0.22145419215E+03  0.00000000000E+00 0. -1.
      99926    2    1    2    0    0 -0.26645352591E-14  0.00000000000E+00  0.13940135688E+02  0.45684851998E+03  0.45663578794E+03 0.  0.
      99925    2    3    3    0    0  0.48366640286E+01  0.11357907136E+03 -0.57407000944E+01  0.28667671806E+03  0.26311021697E+03 0.  0.
         25    1    4    4    0    0  0.22471251357E+02  0.87030378541E+02  0.19123352578E+02  0.15521744309E+03  0.12509000000E+03 0.  0.
         25    1    4    4    0    0 -0.17634587328E+02  0.26548692819E+02 -0.24864052673E+02  0.13145927497E+03  0.12509000000E+03 0.  0.
         25    1    3    3    0    0 -0.48366640286E+01 -0.11357907136E+03  0.19680835782E+02  0.17017180191E+03  0.12509000000E+03 0.  0.
<mgrwt>
<rscale>  2 0.45663579E+03</rscale>
<asrwt>0</asrwt>
<pdfrwt beam="1">  1       21 0.34616813E-01 0.45663579E+03</pdfrwt>
<pdfrwt beam="2">  1       21 0.32566793E-01 0.45663579E+03</pdfrwt>
<totfact> 0.67524957E+04</totfact>
</mgrwt>
</event>
<event>
 7    0  0.4709932E-002  0.4531995E+03  0.7546771E-02  0.1026772E+00
         21   -1    0    0  502  501  0.00000000000E+00  0.00000000000E+00  0.10353314413E+04  0.10353314413E+04  0.00000000000E+00 0.  1.
         21   -1    0    0  501  502 -0.00000000000E+00 -0.00000000000E+00 -0.49595170321E+02  0.49595170321E+02  0.00000000000E+00 0.  1.
      99926    2    1    2    0    0  0.71054273576E-14  0.00000000000E+00  0.98573627094E+03  0.10849266116E+04  0.45319946676E+03 0.  0.
      99925    2    3    3    0    0 -0.48077490839E+02  0.34007371526E+01  0.38086454196E+03  0.46537812537E+03  0.26305130701E+03 0.  0.
         25    1    3    3    0    0  0.48077490839E+02 -0.34007371526E+01  0.60487172899E+03  0.61954848621E+03  0.12509000000E+03 0.  0.
         25    1    4    4    0    0 -0.51069227854E+02  0.21816082461E+02  0.23824390724E+03  0.27475748384E+03  0.12509000000E+03 0.  0.
         25    1    4    4    0    0  0.29917370144E+01 -0.18415345308E+02  0.14262063472E+03  0.19062064154E+03  0.12509000000E+03 0.  0.
<mgrwt>
<rscale>  2 0.45319947E+03</rscale>
<asrwt>0</asrwt>
<pdfrwt beam="1">  1       21 0.15225461E+00 0.45319947E+03</pdfrwt>
<pdfrwt beam="2">  1       21 0.72934080E-02 0.45319947E+03</pdfrwt>
<totfact> 0.36531835E+04</totfact>
</mgrwt>
</event>
<event>
 7    0  0.4709932E-002  0.4543692E+03  0.7546771E-02  0.1026427E+00
         21   -1    0    0  502  501  0.00000000000E+00  0.00000000000E+00  0.27410196492E+03  0.27410196492E+03  0.00000000000E+00 0. -1.
         21   -1    0    0  501  502 -0.00000000000E+00 -0.00000000000E+00 -0.18829793650E+03  0.18829793650E+03  0.00000000000E+00 0. -1.
      99926    2    1    2    0    0  0.14210854715E-13  0.00000000000E+00  0.85804028428E+02  0.46239990142E+03  0.45436916438E+03 0.  0.
      99925    2    3    3    0    0  0.90307819413E+02  0.65697114356E+02  0.67209261419E+02  0.29368450040E+03  0.26317653367E+03 0.  0.
         25    1    4    4    0    0  0.85708879824E+02  0.35035070383E+02  0.22363166092E+02  0.15722941053E+03  0.12509000000E+03 0.  0.
         25    1    3    3    0    0 -0.90307819413E+02 -0.65697114356E+02  0.18594767009E+02  0.16871540102E+03  0.12509000000E+03 0.  0.
         25    1    4    4    0    0  0.45989395886E+01  0.30662043973E+02  0.44846095327E+02  0.13645508987E+03  0.12509000000E+03 0.  0.
<mgrwt>
<rscale>  2 0.45436916E+03</rscale>
<asrwt>0</asrwt>
<pdfrwt beam="1">  1       21 0.40309113E-01 0.45436916E+03</pdfrwt>
<pdfrwt beam="2">  1       21 0.27690873E-01 0.45436916E+03</pdfrwt>
<totfact> 0.68345702E+04</totfact>
</mgrwt>
</event>
<event>
 7    0  0.4709932E-002  0.4549837E+03  0.7546771E-02  0.1026246E+00
         21   -1    0    0  502  501  0.00000000000E+00  0.00000000000E+00  0.57176457057E+02  0.57176457057E+02  0.00000000000E+00 0. -1.
         21   -1    0    0  501  502 -0.00000000000E+00 -0.00000000000E+00 -0.90513734991E+03  0.90513734991E+03  0.00000000000E+00 0. -1.
      99926    2    1    2    0    0  0.00000000000E+00  0.35527136788E-14 -0.84796089286E+03  0.96231380697E+03  0.45498372199E+03 0.  0.
      99925    2    3    3    0    0 -0.40289694129E+02 -0.20404137902E+02 -0.31497556011E+03  0.41298652627E+03  0.26326541573E+03 0.  0.
         25    1    3    3    0    0  0.40289694129E+02  0.20404137902E+02 -0.53298533275E+03  0.54932728070E+03  0.12509000000E+03 0.  0.
         25    1    4    4    0    0  0.11129575081E+02 -0.33578613562E+02 -0.17381301065E+03  0.21704806265E+03  0.12509000000E+03 0.  0.
         25    1    4    4    0    0 -0.51419269209E+02  0.13174475660E+02 -0.14116254946E+03  0.19593846361E+03  0.12509000000E+03 0.  0.
<mgrwt>
<rscale>  2 0.45498372E+03</rscale>
<asrwt>0</asrwt>
<pdfrwt beam="1">  1       21 0.84083026E-02 0.45498372E+03</pdfrwt>
<pdfrwt beam="2">  1       21 0.13310843E+00 0.45498372E+03</pdfrwt>
<totfact> 0.40651370E+04</totfact>
</mgrwt>
</event>
<event>
 7    0  0.4709932E-002  0.4336396E+03  0.7546771E-02  0.1032716E+00
         21   -1    0    0  502  501  0.00000000000E+00  0.00000000000E+00  0.12269877637E+04  0.12269877637E+04  0.00000000000E+00 0.  1.
         21   -1    0    0  501  502 -0.00000000000E+00 -0.00000000000E+00 -0.38314008509E+02  0.38314008509E+02  0.00000000000E+00 0.  1.
      99926    2    1    2    0    0  0.71054273576E-14  0.00000000000E+00  0.11886737552E+04  0.12653017722E+04  0.43363957209E+03 0.  0.
      99925    2    3    3    0    0  0.52586862143E+02  0.59896085203E+02  0.63251416385E+03  0.68970302462E+03  0.26317898016E+03 0.  0.
         25    1    4    4    0    0  0.67556255958E+02  0.26385991173E+02  0.33738271323E+03  0.36706221752E+03  0.12509000000E+03 0.  0.
         25    1    3    3    0    0 -0.52586862143E+02 -0.59896085203E+02  0.55615959136E+03  0.57559874762E+03  0.12509000000E+03 0.  0.
         25    1    4    4    0    0 -0.14969393815E+02  0.33510094030E+02  0.29513145063E+03  0.32264080709E+03  0.12509000000E+03 0.  0.
<mgrwt>
<rscale>  2 0.43363957E+03</rscale>
<asrwt>0</asrwt>
<pdfrwt beam="1">  1       21 0.18043935E+00 0.43363957E+03</pdfrwt>
<pdfrwt beam="2">  1       21 0.56344138E-02 0.43363957E+03</pdfrwt>
<totfact> 0.35715794E+04</totfact>
</mgrwt>
</event>
<event>
 7    0  0.4709932E-002  0.4577192E+03  0.7546771E-02  0.1025445E+00
         21   -1    0    0  502  501  0.00000000000E+00  0.00000000000E+00  0.70683139567E+03  0.70683139567E+03  0.00000000000E+00 0. -1.
         21   -1    0    0  501  502 -0.00000000000E+00 -0.00000000000E+00 -0.74100726551E+02  0.74100726551E+02  0.00000000000E+00 0. -1.
      99926    2    1    2    0    0  0.00000000000E+00 -0.14210854715E-13  0.63273066912E+03  0.78093212222E+03  0.45771921510E+03 0.  0.
      99925    2    3    3    0    0  0.35402535895E+02  0.99822219469E+02  0.47664795226E+03  0.55459799388E+03  0.26299781250E+03 0.  0.
         25    1    4    4    0    0  0.28662706385E+02  0.71007868827E+02  0.31963658665E+03  0.35167985981E+03  0.12509000000E+03 0.  0.
         25    1    4    4    0    0  0.67398295098E+01  0.28814350643E+02  0.15701136561E+03  0.20291813407E+03  0.12509000000E+03 0.  0.
         25    1    3    3    0    0 -0.35402535895E+02 -0.99822219469E+02  0.15608271686E+03  0.22633412834E+03  0.12509000000E+03 0.  0.
<mgrwt>
<rscale>  2 0.45771922E+03</rscale>
<asrwt>0</asrwt>
<pdfrwt beam="1">  1       21 0.10394579E+00 0.45771922E+03</pdfrwt>
<pdfrwt beam="2">  1       21 0.10897166E-01 0.45771922E+03</pdfrwt>
<totfact> 0.47675246E+04</totfact>
</mgrwt>
</event>
<event>
 7    0  0.4709932E-002  0.4541732E+03  0.7546771E-02  0.1026485E+00
         21   -1    0    0  502  501  0.00000000000E+00  0.00000000000E+00  0.13643208678E+04  0.13643208678E+04  0.00000000000E+00 0. -1.
         21   -1    0    0  501  502 -0.00000000000E+00 -0.00000000000E+00 -0.37797789863E+02  0.37797789863E+02  0.00000000000E+00 0. -1.
      99926    2    1    2    0    0  0.71054273576E-14  0.88817841970E-15  0.13265230779E+04  0.14021186577E+04  0.45417315406E+03 0.  0.
      99925    2    3    3    0    0  0.62986528336E+02  0.69553178776E+01  0.55344898775E+03  0.61642995581E+03  0.26394020001E+03 0.  0.
         25    1    3    3    0    0 -0.62986528336E+02 -0.69553178776E+01  0.77307409020E+03  0.78568870186E+03  0.12509000000E+03 0.  0.
         25    1    4    4    0    0  0.41210486067E+02  0.11756060073E+02  0.37292500167E+03  0.39567293827E+03  0.12509000000E+03 0.  0.
         25    1    4    4    0    0  0.21776042269E+02 -0.48007421954E+01  0.18052398608E+03  0.22075701754E+03  0.12509000000E+03 0.  0.
<mgrwt>
<rscale>  2 0.45417315E+03</rscale>
<asrwt>0</asrwt>
<pdfrwt beam="1">  1       21 0.20063539E+00 0.45417315E+03</pdfrwt>
<pdfrwt beam="2">  1       21 0.55584994E-02 0.45417315E+03</pdfrwt>
<totfact> 0.26445117E+04</totfact>
</mgrwt>
</event>
<event>
 7    0  0.4709932E-002  0.4409098E+03  0.7546771E-02  0.1030468E+00
         21   -1    0    0  502  501  0.00000000000E+00  0.00000000000E+00  0.20171998112E+03  0.20171998112E+03  0.00000000000E+00 0.  1.
         21   -1    0    0  501  502 -0.00000000000E+00 -0.00000000000E+00 -0.24092986910E+03  0.24092986910E+03  0.00000000000E+00 0.  1.
      99926    2    1    2    0    0  0.00000000000E+00  0.00000000000E+00 -0.39209887984E+02  0.44264985021E+03  0.44090982590E+03 0.  0.
      99925    2    3    3    0    0 -0.71433920176E+02 -0.48780584444E+02  0.24212738145E+02  0.27787033700E+03  0.26295116871E+03 0.  0.
         25    1    3    3    0    0  0.71433920176E+02  0.48780584444E+02 -0.63422626129E+02  0.16477951322E+03  0.12509000000E+03 0.  0.
         25    1    4    4    0    0 -0.49573707600E+02 -0.63815587822E+02  0.11377197270E+02  0.14935504830E+03  0.12509000000E+03 0.  0.
         25    1    4    4    0    0 -0.21860212576E+02  0.15035003379E+02  0.12835540875E+02  0.12851528870E+03  0.12509000000E+03 0.  0.
<mgrwt>
<rscale>  2 0.44090983E+03</rscale>
<asrwt>0</asrwt>
<pdfrwt beam="1">  1       21 0.29664703E-01 0.44090983E+03</pdfrwt>
<pdfrwt beam="2">  1       21 0.35430863E-01 0.44090983E+03</pdfrwt>
<totfact> 0.77850979E+04</totfact>
</mgrwt>
</event>
<event>
 7    0  0.4709932E-002  0.4218218E+03  0.7546771E-02  0.1036475E+00
         21   -1    0    0  502  501  0.00000000000E+00  0.00000000000E+00  0.10697120090E+03  0.10697120090E+03  0.00000000000E+00 0. -1.
         21   -1    0    0  501  502 -0.00000000000E+00 -0.00000000000E+00 -0.41584461619E+03  0.41584461619E+03  0.00000000000E+00 0. -1.
      99926    2    1    2    0    0  0.35527136788E-14  0.49960036108E-15 -0.30887341529E+03  0.52281581709E+03  0.42182175374E+03 0.  0.
      99925    2    3    3    0    0  0.31955677171E+02 -0.44858484799E+00 -0.28937353743E+03  0.39224353876E+03  0.26286228905E+03 0.  0.
         25    1    4    4    0    0  0.43037834374E+02 -0.28553970382E+02 -0.16332701411E+03  0.21211036290E+03  0.12509000000E+03 0.  0.
         25    1    3    3    0    0 -0.31955677171E+02  0.44858484799E+00 -0.19499877857E+02  0.13057227833E+03  0.12509000000E+03 0.  0.
         25    1    4    4    0    0 -0.11082157203E+02  0.28105385534E+02 -0.12604652332E+03  0.18013317586E+03  0.12509000000E+03 0.  0.
<mgrwt>
<rscale>  2 0.42182175E+03</rscale>
<asrwt>0</asrwt>
<pdfrwt beam="1">  1       21 0.15731059E-01 0.42182175E+03</pdfrwt>
<pdfrwt beam="2">  1       21 0.61153620E-01 0.42182175E+03</pdfrwt>
<totfact> 0.83586041E+04</totfact>
</mgrwt>
</event>
<event>
 7    0  0.4709932E-002  0.4650207E+03  0.7546771E-02  0.1023335E+00
         21   -1    0    0  502  501  0.00000000000E+00  0.00000000000E+00  0.53701034839E+02  0.53701034839E+02  0.00000000000E+00 0.  1.
         21   -1    0    0  501  502 -0.00000000000E+00 -0.00000000000E+00 -0.10067040880E+04  0.10067040880E+04  0.00000000000E+00 0.  1.
      99926    2    1    2    0    0  0.00000000000E+00  0.00000000000E+00 -0.95300305320E+03  0.10604051229E+04  0.46502065032E+03 0.  0.
      99925    2    3    3    0    0 -0.76828382129E+02  0.93729318269E+02 -0.63264703868E+03  0.69576383402E+03  0.26297766402E+03 0.  0.
         25    1    4    4    0    0 -0.11139135640E+02  0.73213741604E+02 -0.35357300465E+03  0.38229008622E+03  0.12509000000E+03 0.  0.
         25    1    3    3    0    0  0.76828382129E+02 -0.93729318269E+02 -0.32035601452E+03  0.36464128886E+03  0.12509000000E+03 0.  0.
         25    1    4    4    0    0 -0.65689246490E+02  0.20515576665E+02 -0.27907403403E+03  0.31347374780E+03  0.12509000000E+03 0.  0.
<mgrwt>
<rscale>  2 0.46502065E+03</rscale>
<asrwt>0</asrwt>
<pdfrwt beam="1">  1       21 0.78972112E-02 0.46502065E+03</pdfrwt>
<pdfrwt beam="2">  1       21 0.14804472E+00 0.46502065E+03</pdfrwt>
<totfact> 0.34148105E+04</totfact>
</mgrwt>
</event>
<event>
 6    0  0.4709932E-002  0.4577566E+03  0.7546771E-02  0.1025434E+00
         21   -1    0    0  502  501  0.00000000000E+00  0.00000000000E+00  0.18028444713E+03  0.18028444713E+03  0.00000000000E+00 0. -1.
         21   -1    0    0  501  502 -0.00000000000E+00 -0.00000000000E+00 -0.29057012775E+03  0.29057012775E+03  0.00000000000E+00 0. -1.
      99926    2    1    2    0    0  0.14210854715E-13  0.00000000000E+00 -0.11028568062E+03  0.47085457488E+03  0.45775659399E+03 0.  0.
         25    1    3    3    0    0  0.94305989489E+02  0.43318694522E+02 -0.10414266125E+03  0.19303712322E+03  0.12509000000E+03 0.  0.
         25    1    3    3    0    0 -0.69203777337E+02 -0.15771347271E+02  0.18431103341E+02  0.14500038573E+03  0.12509000000E+03 0.  0.
         25    1    3    3    0    0 -0.25102212152E+02 -0.27547347251E+02 -0.24574122711E+02  0.13281706593E+03  0.12509000000E+03 0.  0.
<mgrwt>
<rscale>  2 0.45775659E+03</rscale>
<asrwt>0</asrwt>
<pdfrwt beam="1">  1       21 0.26512419E-01 0.45775659E+03</pdfrwt>
<pdfrwt beam="2">  1       21 0.42730901E-01 0.45775659E+03</pdfrwt>
<totfact> 0.65918988E+04</totfact>
</mgrwt>
</event>
<event>
 7    0  0.4709932E-002  0.4548503E+03  0.7546771E-02  0.1026285E+00
         21   -1    0    0  502  501  0.00000000000E+00  0.00000000000E+00  0.15318482205E+04  0.15318482205E+04  0.00000000000E+00 0.  1.
         21   -1    0    0  501  502 -0.00000000000E+00 -0.00000000000E+00 -0.33764578762E+02  0.33764578762E+02  0.00000000000E+00 0.  1.
      99926    2    1    2    0    0  0.71054273576E-14  0.00000000000E+00  0.14980836418E+04  0.15656127993E+04  0.45485034855E+03 0.  0.
      99925    2    3    3    0    0 -0.61733145977E+02  0.93378201834E+02  0.99720879000E+03  0.10373575626E+04  0.26297313908E+03 0.  0.
         25    1    4    4    0    0 -0.27732277699E+02  0.19255995970E+02  0.35182591121E+03  0.37492512920E+03  0.12509000000E+03 0.  0.
         25    1    3    3    0    0  0.61733145977E+02 -0.93378201834E+02  0.50087485178E+03  0.52825523673E+03  0.12509000000E+03 0.  0.
         25    1    4    4    0    0 -0.34000868278E+02  0.74122205864E+02  0.64538287879E+03  0.66243243337E+03  0.12509000000E+03 0.  0.
<mgrwt>
<rscale>  2 0.45485035E+03</rscale>
<asrwt>0</asrwt>
<pdfrwt beam="1">  1       21 0.22527175E+00 0.45485035E+03</pdfrwt>
<pdfrwt beam="2">  1       21 0.49653803E-02 0.45485035E+03</pdfrwt>
<totfact> 0.22241766E+04</totfact>
</mgrwt>
</event>
<event>
 7    0  0.4709932E-002  0.4531547E+03  0.7546771E-02  0.1026785E+00
         21   -1    0    0  502  501  0.00000000000E+00  0.00000000000E+00  0.12809033577E+03  0.12809033577E+03  0.00000000000E+00 0. -1.
         21   -1    0    0  501  502 -0.00000000000E+00 -0.00000000000E+00 -0.40078984586E+03  0.40078984586E+03  0.00000000000E+00 0. -1.
      99926    2    1    2    0    0  0.00000000000E+00  0.00000000000E+00 -0.27269951009E+03  0.52888018163E+03  0.45315474589E+03 0.  0.
      99925    2    3    3    0    0 -0.26652096003E+02 -0.96036468192E+02 -0.23021129056E+03  0.36339273696E+03  0.26291387474E+03 0.  0.
         25    1    3    3    0    0  0.26652096003E+02  0.96036468192E+02 -0.42488219535E+02  0.16548744467E+03  0.12509000000E+03 0.  0.
         25    1    4    4    0    0 -0.27316942313E+02 -0.54354312231E+02 -0.16648898066E+03  0.21694860077E+03  0.12509000000E+03 0.  0.
         25    1    4    4    0    0  0.66484630973E+00 -0.41682155961E+02 -0.63722309898E+02  0.14644413619E+03  0.12509000000E+03 0.  0.
<mgrwt>
<rscale>  2 0.45315475E+03</rscale>
<asrwt>0</asrwt>
<pdfrwt beam="1">  1       21 0.18836814E-01 0.45315475E+03</pdfrwt>
<pdfrwt beam="2">  1       21 0.58939683E-01 0.45315475E+03</pdfrwt>
<totfact> 0.64216468E+04</totfact>
</mgrwt>
</event>
<event>
 7    0  0.4709932E-002  0.4584242E+03  0.7546771E-02  0.1025239E+00
         21   -1    0    0  502  501  0.00000000000E+00  0.00000000000E+00  0.68178399496E+02  0.68178399496E+02  0.00000000000E+00 0. -1.
         21   -1    0    0  501  502 -0.00000000000E+00 -0.00000000000E+00 -0.77059872164E+03  0.77059872164E+03  0.00000000000E+00 0. -1.
      99926    2    1    2    0    0  0.00000000000E+00  0.00000000000E+00 -0.70242032214E+03  0.83877712113E+03  0.45842420309E+03 0.  0.
      99925    2    3    3    0    0  0.66335731971E+02 -0.65177619294E+02 -0.56876069905E+03  0.63344579294E+03  0.26289976876E+03 0.  0.
         25    1    4    4    0    0  0.10784371743E+02 -0.63525113010E+02 -0.31849893055E+03  0.34819652428E+03  0.12509000000E+03 0.  0.
         25    1    4    4    0    0  0.55551360228E+02 -0.16525062838E+01 -0.25026176850E+03  0.28524926866E+03  0.12509000000E+03 0.  0.
         25    1    3    3    0    0 -0.66335731971E+02  0.65177619294E+02 -0.13365962309E+03  0.20533132820E+03  0.12509000000E+03 0.  0.
<mgrwt>
<rscale>  2 0.45842420E+03</rscale>
<asrwt>0</asrwt>
<pdfrwt beam="1">  1       21 0.10026236E-01 0.45842420E+03</pdfrwt>
<pdfrwt beam="2">  1       21 0.11332333E+00 0.45842420E+03</pdfrwt>
<totfact> 0.44731802E+04</totfact>
</mgrwt>
</event>
<event>
 7    0  0.4709932E-002  0.4453938E+03  0.7546771E-02  0.1029105E+00
         21   -1    0    0  502  501  0.00000000000E+00  0.00000000000E+00  0.16092453536E+03  0.16092453536E+03  0.00000000000E+00 0. -1.
         21   -1    0    0  501  502 -0.00000000000E+00 -0.00000000000E+00 -0.30818114935E+03  0.30818114935E+03  0.00000000000E+00 0. -1.
      99926    2    1    2    0    0 -0.14210854715E-13  0.00000000000E+00 -0.14725661399E+03  0.46910568471E+03  0.44539379550E+03 0.  0.
      99925    2    3    3    0    0 -0.73303819520E+02 -0.52937194301E+02 -0.39763534139E+02  0.28101510331E+03  0.26308278763E+03 0.  0.
         25    1    3    3    0    0  0.73303819520E+02  0.52937194301E+02 -0.10749307985E+03  0.18809058140E+03  0.12509000000E+03 0.  0.
         25    1    4    4    0    0 -0.22305260777E+02  0.30190674678E+00 -0.47396774327E+02  0.13561555266E+03  0.12509000000E+03 0.  0.
         25    1    4    4    0    0 -0.50998558744E+02 -0.53239101048E+02  0.76332401878E+01  0.14539955065E+03  0.12509000000E+03 0.  0.
<mgrwt>
<rscale>  2 0.44539380E+03</rscale>
<asrwt>0</asrwt>
<pdfrwt beam="1">  1       21 0.23665373E-01 0.44539380E+03</pdfrwt>
<pdfrwt beam="2">  1       21 0.45320757E-01 0.44539380E+03</pdfrwt>
<totfact> 0.72903124E+04</totfact>
</mgrwt>
</event>
<event>
 7    0  0.4709932E-002  0.4583157E+03  0.7546771E-02  0.1025271E+00
         21   -1    0    0  502  501  0.00000000000E+00  0.00000000000E+00  0.11064476765E+04  0.11064476765E+04  0.00000000000E+00 0. -1.
         21   -1    0    0  501  502 -0.00000000000E+00 -0.00000000000E+00 -0.47461186886E+02  0.47461186886E+02  0.00000000000E+00 0. -1.
      99926    2    1    2    0    0  0.00000000000E+00  0.00000000000E+00  0.10589864896E+04  0.11539088633E+04  0.45831569884E+03 0.  0.
      99925    2    3    3    0    0 -0.46572560615E+02  0.70367734843E+02  0.46298947716E+03  0.53910762033E+03  0.26297746829E+03 0.  0.
         25    1    4    4    0    0 -0.27711094752E+02  0.76613165555E+02  0.26174581588E+03  0.30132351740E+03  0.12509000000E+03 0.  0.
         25    1    3    3    0    0  0.46572560615E+02 -0.70367734843E+02  0.59599701241E+03  0.61480124302E+03  0.12509000000E+03 0.  0.
         25    1    4    4    0    0 -0.18861465863E+02 -0.62454307123E+01  0.20124366129E+03  0.23778410293E+03  0.12509000000E+03 0.  0.
<mgrwt>
<rscale>  2 0.45831570E+03</rscale>
<asrwt>0</asrwt>
<pdfrwt beam="1">  1       21 0.16271288E+00 0.45831570E+03</pdfrwt>
<pdfrwt beam="2">  1       21 0.69795870E-02 0.45831570E+03</pdfrwt>
<totfact> 0.32796420E+04</totfact>
</mgrwt>
</event>
<event>
 7    0  0.4709932E-002  0.4490305E+03  0.7546771E-02  0.1028012E+00
         21   -1    0    0  502  501  0.00000000000E+00  0.00000000000E+00  0.18692067769E+03  0.18692067769E+03  0.00000000000E+00 0. -1.
         21   -1    0    0  501  502 -0.00000000000E+00 -0.00000000000E+00 -0.26967103533E+03  0.26967103533E+03  0.00000000000E+00 0. -1.
      99926    2    1    2    0    0  0.00000000000E+00  0.00000000000E+00 -0.82750357640E+02  0.45659171302E+03  0.44903047859E+03 0.  0.
      99925    2    3    3    0    0 -0.85711181989E+02  0.21234374235E+02 -0.11714565143E+03  0.29965908511E+03  0.26129515547E+03 0.  0.
         25    1    3    3    0    0  0.85711181989E+02 -0.21234374235E+02  0.34395293786E+02  0.15693262791E+03  0.12509000000E+03 0.  0.
         25    1    4    4    0    0 -0.51432223879E+02  0.14098419347E+02 -0.19985316210E+02  0.13744438892E+03  0.12509000000E+03 0.  0.
         25    1    4    4    0    0 -0.34278958110E+02  0.71359548885E+01 -0.97160335217E+02  0.16221469619E+03  0.12509000000E+03 0.  0.
<mgrwt>
<rscale>  2 0.44903048E+03</rscale>
<asrwt>0</asrwt>
<pdfrwt beam="1">  1       21 0.27488335E-01 0.44903048E+03</pdfrwt>
<pdfrwt beam="2">  1       21 0.39657505E-01 0.44903048E+03</pdfrwt>
<totfact> 0.71785385E+04</totfact>
</mgrwt>
</event>
<event>
 7    0  0.4709932E-002  0.4550482E+03  0.7546771E-02  0.1026227E+00
         21   -1    0    0  502  501  0.00000000000E+00  0.00000000000E+00  0.34243712958E+03  0.34243712958E+03  0.00000000000E+00 0.  1.
         21   -1    0    0  501  502 -0.00000000000E+00 -0.00000000000E+00 -0.15117287369E+03  0.15117287369E+03  0.00000000000E+00 0.  1.
      99926    2    1    2    0    0  0.00000000000E+00  0.14210854715E-13  0.19126425590E+03  0.49361000327E+03  0.45504815102E+03 0.  0.
      99925    2    3    3    0    0  0.16844515761E+02  0.84325620102E+02  0.40395950169E+02  0.27959294393E+03  0.26295595370E+03 0.  0.
         25    1    3    3    0    0 -0.16844515761E+02 -0.84325620102E+02  0.15086830573E+03  0.21401705934E+03  0.12509000000E+03 0.  0.
         25    1    4    4    0    0  0.43550989989E+01  0.84358320907E+02  0.21004772777E+02  0.15239423143E+03  0.12509000000E+03 0.  0.
         25    1    4    4    0    0  0.12489416762E+02 -0.32700805463E-01  0.19391177392E+02  0.12719871250E+03  0.12509000000E+03 0.  0.
<mgrwt>
<rscale>  2 0.45504815E+03</rscale>
<asrwt>0</asrwt>
<pdfrwt beam="1">  1       21 0.50358401E-01 0.45504815E+03</pdfrwt>
<pdfrwt beam="2">  1       21 0.22231305E-01 0.45504815E+03</pdfrwt>
<totfact> 0.65696828E+04</totfact>
</mgrwt>
</event>
<event>
 7    0  0.4709932E-002  0.4547546E+03  0.7546771E-02  0.1026314E+00
         21   -1    0    0  502  501  0.00000000000E+00  0.00000000000E+00  0.67521632000E+03  0.67521632000E+03  0.00000000000E+00 0.  1.
         21   -1    0    0  501  502 -0.00000000000E+00 -0.00000000000E+00 -0.76568716920E+02  0.76568716920E+02  0.00000000000E+00 0.  1.
      99926    2    1    2    0    0  0.14210854715E-13  0.00000000000E+00  0.59864760308E+03  0.75178503692E+03  0.45475464710E+03 0.  0.
      99925    2    3    3    0    0 -0.78479761314E+02 -0.37922617777E+02  0.25825909940E+03  0.37881179470E+03  0.26306542058E+03 0.  0.
         25    1    4    4    0    0 -0.72943860091E+02 -0.97494545138E+01  0.10624911295E+03  0.17986728633E+03  0.12509000000E+03 0.  0.
         25    1    4    4    0    0 -0.55359012236E+01 -0.28173163263E+02  0.15200998645E+03  0.19894450837E+03  0.12509000000E+03 0.  0.
         25    1    3    3    0    0  0.78479761314E+02  0.37922617777E+02  0.34038850368E+03  0.37297324222E+03  0.12509000000E+03 0.  0.
<mgrwt>
<rscale>  2 0.45475465E+03</rscale>
<asrwt>0</asrwt>
<pdfrwt beam="1">  1       21 0.99296515E-01 0.45475465E+03</pdfrwt>
<pdfrwt beam="2">  1       21 0.11260106E-01 0.45475465E+03</pdfrwt>
<totfact> 0.50276796E+04</totfact>
</mgrwt>
</event>
<event>
 7    0  0.4709932E-002  0.4619152E+03  0.7546771E-02  0.1024227E+00
         21   -1    0    0  502  501  0.00000000000E+00  0.00000000000E+00  0.13810874319E+03  0.13810874319E+03  0.00000000000E+00 0.  1.
         21   -1    0    0  501  502 -0.00000000000E+00 -0.00000000000E+00 -0.38622762004E+03  0.38622762004E+03  0.00000000000E+00 0.  1.
      99926    2    1    2    0    0  0.00000000000E+00  0.00000000000E+00 -0.24811887685E+03  0.52433636322E+03  0.46191519216E+03 0.  0.
      99925    2    3    3    0    0  0.43866862462E+02 -0.82052994817E+02 -0.72123534367E+02  0.28922178636E+03  0.26417880671E+03 0.  0.
         25    1    4    4    0    0  0.64446026408E+02 -0.40032600168E+02 -0.31829508236E+02  0.14972149175E+03  0.12509000000E+03 0.  0.
         25    1    3    3    0    0 -0.43866862462E+02  0.82052994817E+02 -0.17599534248E+03  0.23511457687E+03  0.12509000000E+03 0.  0.
         25    1    4    4    0    0 -0.20579163945E+02 -0.42020394649E+02 -0.40294026131E+02  0.13950029461E+03  0.12509000000E+03 0.  0.
<mgrwt>
<rscale>  2 0.46191519E+03</rscale>
<asrwt>0</asrwt>
<pdfrwt beam="1">  1       21 0.20310109E-01 0.46191519E+03</pdfrwt>
<pdfrwt beam="2">  1       21 0.56798180E-01 0.46191519E+03</pdfrwt>
<totfact> 0.60220420E+04</totfact>
</mgrwt>
</event>
<event>
 7    0  0.4709932E-002  0.4655315E+03  0.7546771E-02  0.1023189E+00
         21   -1    0    0  502  501  0.00000000000E+00  0.00000000000E+00  0.52029693685E+03  0.52029693685E+03  0.00000000000E+00 0.  1.
         21   -1    0    0  501  502 -0.00000000000E+00 -0.00000000000E+00 -0.10413262232E+03  0.10413262232E+03  0.00000000000E+00 0.  1.
      99926    2    1    2    0    0  0.00000000000E+00  0.00000000000E+00  0.41616431453E+03  0.62442955917E+03  0.46553145724E+03 0.  0.
      99925    2    3    3    0    0  0.98444163803E+02 -0.46170914668E+02  0.18226261050E+03  0.33775810612E+03  0.26275058956E+03 0.  0.
         25    1    3    3    0    0 -0.98444163803E+02  0.46170914668E+02  0.23390170403E+03  0.28667145305E+03  0.12509000000E+03 0.  0.
         25    1    4    4    0    0  0.53429502414E+02  0.92075781555E+01  0.60452012312E+02  0.14913566011E+03  0.12509000000E+03 0.  0.
         25    1    4    4    0    0  0.45014661389E+02 -0.55378492823E+02  0.12181059819E+03  0.18862244601E+03  0.12509000000E+03 0.  0.
<mgrwt>
<rscale>  2 0.46553146E+03</rscale>
<asrwt>0</asrwt>
<pdfrwt beam="1">  1       21 0.76514255E-01 0.46553146E+03</pdfrwt>
<pdfrwt beam="2">  1       21 0.15313621E-01 0.46553146E+03</pdfrwt>
<totfact> 0.52679945E+04</totfact>
</mgrwt>
</event>
<event>
 7    0  0.4709932E-002  0.4604557E+03  0.7546771E-02  0.1024649E+00
         21   -1    0    0  502  501  0.00000000000E+00  0.00000000000E+00  0.99095160784E+03  0.99095160784E+03  0.00000000000E+00 0. -1.
         21   -1    0    0  501  502 -0.00000000000E+00 -0.00000000000E+00 -0.53488840358E+02  0.53488840358E+02  0.00000000000E+00 0. -1.
      99926    2    1    2    0    0  0.26645352591E-14  0.00000000000E+00  0.93746276748E+03  0.10444404482E+04  0.46045565412E+03 0.  0.
      99925    2    3    3    0    0  0.72869415408E+01 -0.11495033043E+03  0.52590141153E+03  0.59913500719E+03  0.26291402435E+03 0.  0.
         25    1    4    4    0    0 -0.24346179570E+02 -0.55929851028E+02  0.32134830326E+03  0.35019012665E+03  0.12509000000E+03 0.  0.
         25    1    3    3    0    0 -0.72869415408E+01  0.11495033043E+03  0.41156135594E+03  0.44530544101E+03  0.12509000000E+03 0.  0.
         25    1    4    4    0    0  0.31633121111E+02 -0.59020479405E+02  0.20455310827E+03  0.24894488053E+03  0.12509000000E+03 0.  0.
<mgrwt>
<rscale>  2 0.46045565E+03</rscale>
<asrwt>0</asrwt>
<pdfrwt beam="1">  1       21 0.14572817E+00 0.46045565E+03</pdfrwt>
<pdfrwt beam="2">  1       21 0.78660066E-02 0.46045565E+03</pdfrwt>
<totfact> 0.35927501E+04</totfact>
</mgrwt>
</event>
<event>
 7    0  0.4709932E-002  0.4555084E+03  0.7546771E-02  0.1026092E+00
         21   -1    0    0  502  501  0.00000000000E+00  0.00000000000E+00  0.34551748937E+03  0.34551748937E+03  0.00000000000E+00 0. -1.
         21   -1    0    0  501  502 -0.00000000000E+00 -0.00000000000E+00 -0.15012837998E+03  0.15012837998E+03  0.00000000000E+00 0. -1.
      99926    2    1    2    0    0  0.00000000000E+00  0.00000000000E+00  0.19538910939E+03  0.49564586935E+03  0.45550842334E+03 0.  0.
      99925    2    3    3    0    0  0.76522056481E+01  0.41338518470E+02  0.23772011271E+03  0.35705708444E+03  0.26308074844E+03 0.  0.
         25    1    4    4    0    0  0.70362512566E+01  0.39798418839E+02  0.16969847985E+03  0.21465904392E+03  0.12509000000E+03 0.  0.
         25    1    4    4    0    0  0.61595439147E+00  0.15400996312E+01  0.68021632862E+02  0.14239804052E+03  0.12509000000E+03 0.  0.
         25    1    3    3    0    0 -0.76522056481E+01 -0.41338518470E+02 -0.42331003314E+02  0.13858878491E+03  0.12509000000E+03 0.  0.
<mgrwt>
<rscale>  2 0.45550842E+03</rscale>
<asrwt>0</asrwt>
<pdfrwt beam="1">  1       21 0.50811395E-01 0.45550842E+03</pdfrwt>
<pdfrwt beam="2">  1       21 0.22077703E-01 0.45550842E+03</pdfrwt>
<totfact> 0.65313630E+04</totfact>
</mgrwt>
</event>
<event>
 7    0  0.4709932E-002  0.4504273E+03  0.7546771E-02  0.1027595E+00
         21   -1    0    0  502  501  0.00000000000E+00  0.00000000000E+00  0.46509526602E+03  0.46509526602E+03  0.00000000000E+00 0. -1.
         21   -1    0    0  501  502 -0.00000000000E+00 -0.00000000000E+00 -0.10905550282E+03  0.10905550282E+03  0.00000000000E+00 0. -1.
      99926    2    1    2    0    0  0.00000000000E+00  0.00000000000E+00  0.35603976320E+03  0.57415076884E+03  0.45042734417E+03 0.  0.
      99925    2    3    3    0    0 -0.32901892674E+01  0.21826443301E+02  0.36111531233E+03  0.44702685972E+03  0.26256718290E+03 0.  0.
         25    1    4    4    0    0  0.27583566278E+01  0.94963066921E+01  0.24746894541E+03  0.27746382721E+03  0.12509000000E+03 0.  0.
         25    1    3    3    0    0  0.32901892674E+01 -0.21826443301E+02 -0.50755491264E+01  0.12712390913E+03  0.12509000000E+03 0.  0.
         25    1    4    4    0    0 -0.60485458953E+01  0.12330136609E+02  0.11364636692E+03  0.16956303250E+03  0.12509000000E+03 0.  0.
<mgrwt>
<rscale>  2 0.45042734E+03</rscale>
<asrwt>0</asrwt>
<pdfrwt beam="1">  1       21 0.68396362E-01 0.45042734E+03</pdfrwt>
<pdfrwt beam="2">  1       21 0.16037574E-01 0.45042734E+03</pdfrwt>
<totfact> 0.62528508E+04</totfact>
</mgrwt>
</event>
<event>
 7    0  0.4709932E-002  0.4581129E+03  0.7546771E-02  0.1025330E+00
         21   -1    0    0  502  501  0.00000000000E+00  0.00000000000E+00  0.66920369249E+03  0.66920369249E+03  0.00000000000E+00 0.  1.
         21   -1    0    0  501  502 -0.00000000000E+00 -0.00000000000E+00 -0.78401940774E+02  0.78401940774E+02  0.00000000000E+00 0.  1.
      99926    2    1    2    0    0 -0.44408920985E-15 -0.11102230246E-15  0.59080175171E+03  0.74760563326E+03  0.45811294793E+03 0.  0.
      99925    2    3    3    0    0  0.13761403492E+01 -0.15636942115E+00  0.56018069342E+03  0.61881481245E+03  0.26292098551E+03 0.  0.
         25    1    4    4    0    0  0.66831002461E+01  0.24147123019E+02  0.20527120446E+03  0.24168475926E+03  0.12509000000E+03 0.  0.
         25    1    3    3    0    0 -0.13761403492E+01  0.15636942115E+00  0.30621058297E+02  0.12879082081E+03  0.12509000000E+03 0.  0.
         25    1    4    4    0    0 -0.53069598969E+01 -0.24303492440E+02  0.35490948895E+03  0.37713005319E+03  0.12509000000E+03 0.  0.
<mgrwt>
<rscale>  2 0.45811295E+03</rscale>
<asrwt>0</asrwt>
<pdfrwt beam="1">  1       21 0.98412305E-01 0.45811295E+03</pdfrwt>
<pdfrwt beam="2">  1       21 0.11529698E-01 0.45811295E+03</pdfrwt>
<totfact> 0.49178926E+04</totfact>
</mgrwt>
</event>
<event>
 7    0  0.4709932E-002  0.4730483E+03  0.7546771E-02  0.1021063E+00
         21   -1    0    0  502  501  0.00000000000E+00  0.00000000000E+00  0.13081376618E+04  0.13081376618E+04  0.00000000000E+00 0. -1.
         21   -1    0    0  501  502 -0.00000000000E+00 -0.00000000000E+00 -0.42765898809E+02  0.42765898809E+02  0.00000000000E+00 0. -1.
      99926    2    1    2    0    0 -0.71054273576E-14  0.00000000000E+00  0.12653717630E+04  0.13509035606E+04  0.47304833948E+03 0.  0.
      99925    2    3    3    0    0 -0.63432969826E+02 -0.74149357136E+02  0.54103876836E+03  0.60939990988E+03  0.26291335545E+03 0.  0.
         25    1    4    4    0    0 -0.51586385348E+02 -0.67114853405E+02  0.34265590860E+03  0.37446780702E+03  0.12509000000E+03 0.  0.
         25    1    3    3    0    0  0.63432969826E+02  0.74149357136E+02  0.72433299461E+03  0.74150365070E+03  0.12509000000E+03 0.  0.
         25    1    4    4    0    0 -0.11846584478E+02 -0.70345037307E+01  0.19838285976E+03  0.23493210286E+03  0.12509000000E+03 0.  0.
<mgrwt>
<rscale>  2 0.47304834E+03</rscale>
<asrwt>0</asrwt>
<pdfrwt beam="1">  1       21 0.19237316E+00 0.47304834E+03</pdfrwt>
<pdfrwt beam="2">  1       21 0.62891036E-02 0.47304834E+03</pdfrwt>
<totfact> 0.24106016E+04</totfact>
</mgrwt>
</event>
<event>
 7    0  0.4709932E-002  0.4562725E+03  0.7546771E-02  0.1025868E+00
         21   -1    0    0  502  501  0.00000000000E+00  0.00000000000E+00  0.32442925389E+03  0.32442925389E+03  0.00000000000E+00 0.  1.
         21   -1    0    0  501  502 -0.00000000000E+00 -0.00000000000E+00 -0.16042369419E+03  0.16042369419E+03  0.00000000000E+00 0.  1.
      99926    2    1    2    0    0  0.35527136788E-14  0.00000000000E+00  0.16400555970E+03  0.48485294808E+03  0.45627245988E+03 0.  0.
      99925    2    3    3    0    0 -0.18100968308E+02  0.10141844854E+03  0.15598338939E+03  0.32260249330E+03  0.26292242993E+03 0.  0.
         25    1    3    3    0    0  0.18100968308E+02 -0.10141844854E+03  0.80221703190E+01  0.16225045478E+03  0.12509000000E+03 0.  0.
         25    1    4    4    0    0  0.23212291796E+02  0.25289533572E+02  0.81559229310E+02  0.15322462917E+03  0.12509000000E+03 0.  0.
         25    1    4    4    0    0 -0.41313260104E+02  0.76128914972E+02  0.74424160075E+02  0.16937786413E+03  0.12509000000E+03 0.  0.
<mgrwt>
<rscale>  2 0.45627246E+03</rscale>
<asrwt>0</asrwt>
<pdfrwt beam="1">  1       21 0.47710185E-01 0.45627246E+03</pdfrwt>
<pdfrwt beam="2">  1       21 0.23591720E-01 0.45627246E+03</pdfrwt>
<totfact> 0.65682529E+04</totfact>
</mgrwt>
</event>
<event>
 7    0  0.4709932E-002  0.4438745E+03  0.7546771E-02  0.1029565E+00
         21   -1    0    0  502  501  0.00000000000E+00  0.00000000000E+00  0.62104088408E+03  0.62104088408E+03  0.00000000000E+00 0.  1.
         21   -1    0    0  501  502 -0.00000000000E+00 -0.00000000000E+00 -0.79312253992E+02  0.79312253992E+02  0.00000000000E+00 0.  1.
      99926    2    1    2    0    0  0.00000000000E+00  0.00000000000E+00  0.54172863009E+03  0.70035313807E+03  0.44387454236E+03 0.  0.
      99925    2    3    3    0    0 -0.47459547533E+02  0.74515206713E+02  0.42599987207E+03  0.50840111746E+03  0.26304159472E+03 0.  0.
         25    1    3    3    0    0  0.47459547533E+02 -0.74515206713E+02  0.11572875802E+03  0.19195202061E+03  0.12509000000E+03 0.  0.
         25    1    4    4    0    0 -0.94389093560E+01  0.36469488903E+02  0.27874869298E+03  0.30784323700E+03  0.12509000000E+03 0.  0.
         25    1    4    4    0    0 -0.38020638177E+02  0.38045717810E+02  0.14725117909E+03  0.20055788046E+03  0.12509000000E+03 0.  0.
<mgrwt>
<rscale>  2 0.44387454E+03</rscale>
<asrwt>0</asrwt>
<pdfrwt beam="1">  1       21 0.91329539E-01 0.44387454E+03</pdfrwt>
<pdfrwt beam="2">  1       21 0.11663567E-01 0.44387454E+03</pdfrwt>
<totfact> 0.57778703E+04</totfact>
</mgrwt>
</event>
<event>
 6    0  0.4709932E-002  0.4541454E+03  0.7546771E-02  0.1026493E+00
         21   -1    0    0  502  501  0.00000000000E+00  0.00000000000E+00  0.70485038817E+02  0.70485038817E+02  0.00000000000E+00 0.  1.
         21   -1    0    0  501  502 -0.00000000000E+00 -0.00000000000E+00 -0.73153142370E+03  0.73153142370E+03  0.00000000000E+00 0.  1.
      99926    2    1    2    0    0  0.14210854715E-13  0.71054273576E-14 -0.66104638488E+03  0.80201646251E+03  0.45414544276E+03 0.  0.
         25    1    3    3    0    0  0.57015384650E+02  0.41045262355E+02 -0.18294753716E+03  0.23249253128E+03  0.12509000000E+03 0.  0.
         25    1    3    3    0    0 -0.80199189685E+02 -0.47767095125E+02 -0.37310655002E+03  0.40443740081E+03  0.12509000000E+03 0.  0.
         25    1    3    3    0    0  0.23183805035E+02  0.67218327697E+01 -0.10499229770E+03  0.16508653042E+03  0.12509000000E+03 0.  0.
<mgrwt>
<rscale>  2 0.45414544E+03</rscale>
<asrwt>0</asrwt>
<pdfrwt beam="1">  1       21 0.10365447E-01 0.45414544E+03</pdfrwt>
<pdfrwt beam="2">  1       21 0.10757815E+00 0.45414544E+03</pdfrwt>
<totfact> 0.47988444E+04</totfact>
</mgrwt>
</event>
<event>
 7    0  0.4709932E-002  0.4535325E+03  0.7546771E-02  0.1026674E+00
         21   -1    0    0  502  501  0.00000000000E+00  0.00000000000E+00  0.54324867815E+02  0.54324867815E+02  0.00000000000E+00 0. -1.
         21   -1    0    0  501  502 -0.00000000000E+00 -0.00000000000E+00 -0.94658194039E+03  0.94658194039E+03  0.00000000000E+00 0. -1.
      99926    2    1    2    0    0 -0.17763568394E-14  0.17763568394E-14 -0.89225707258E+03  0.10009068082E+04  0.45353252932E+03 0.  0.
      99925    2    3    3    0    0  0.14547621239E+02 -0.86354386383E+01 -0.31813667790E+03  0.41307354973E+03  0.26293080379E+03 0.  0.
         25    1    4    4    0    0  0.96853263232E+01 -0.33682199706E+02 -0.11692187304E+03  0.17477565225E+03  0.12509000000E+03 0.  0.
         25    1    4    4    0    0  0.48622949160E+01  0.25046761068E+02 -0.20121480486E+03  0.23829789748E+03  0.12509000000E+03 0.  0.
         25    1    3    3    0    0 -0.14547621239E+02  0.86354386383E+01 -0.57412039468E+03  0.58783325848E+03  0.12509000000E+03 0.  0.
<mgrwt>
<rscale>  2 0.45353253E+03</rscale>
<asrwt>0</asrwt>
<pdfrwt beam="1">  1       21 0.79889516E-02 0.45353253E+03</pdfrwt>
<pdfrwt beam="2">  1       21 0.13920322E+00 0.45353253E+03</pdfrwt>
<totfact> 0.39583247E+04</totfact>
</mgrwt>
</event>
<event>
 7    0  0.4709932E-002  0.4549766E+03  0.7546771E-02  0.1026248E+00
         21   -1    0    0  502  501  0.00000000000E+00  0.00000000000E+00  0.23156006841E+03  0.23156006841E+03  0.00000000000E+00 0. -1.
         21   -1    0    0  501  502 -0.00000000000E+00 -0.00000000000E+00 -0.22348811862E+03  0.22348811862E+03  0.00000000000E+00 0. -1.
      99926    2    1    2    0    0  0.00000000000E+00  0.00000000000E+00  0.80719497915E+01  0.45504818703E+03  0.45497658857E+03 0.  0.
      99925    2    3    3    0    0  0.11852527202E+02 -0.11250507615E+03  0.38162476995E+01  0.28633691396E+03  0.26301404904E+03 0.  0.
         25    1    4    4    0    0  0.10455507017E+02 -0.88228500122E+02 -0.25605315388E+02  0.15555296891E+03  0.12509000000E+03 0.  0.
         25    1    3    3    0    0 -0.11852527202E+02  0.11250507615E+03  0.42557020921E+01  0.16871127307E+03  0.12509000000E+03 0.  0.
         25    1    4    4    0    0  0.13970201852E+01 -0.24276576028E+02  0.29421563087E+02  0.13078394505E+03  0.12509000000E+03 0.  0.
<mgrwt>
<rscale>  2 0.45497659E+03</rscale>
<asrwt>0</asrwt>
<pdfrwt beam="1">  1       21 0.34052952E-01 0.45497659E+03</pdfrwt>
<pdfrwt beam="2">  1       21 0.32865899E-01 0.45497659E+03</pdfrwt>
<totfact> 0.68555069E+04</totfact>
</mgrwt>
</event>
<event>
 7    0  0.4709932E-002  0.4354062E+03  0.7546771E-02  0.1032166E+00
         21   -1    0    0  502  501  0.00000000000E+00  0.00000000000E+00  0.13197965853E+04  0.13197965853E+04  0.00000000000E+00 0.  1.
         21   -1    0    0  501  502 -0.00000000000E+00 -0.00000000000E+00 -0.35910563836E+02  0.35910563836E+02  0.00000000000E+00 0.  1.
      99926    2    1    2    0    0  0.00000000000E+00 -0.26645352591E-14  0.12838860215E+04  0.13557071491E+04  0.43540619898E+03 0.  0.
      99925    2    3    3    0    0 -0.54850157545E+02 -0.72139305656E+01  0.10583234554E+04  0.10919145035E+04  0.26299841474E+03 0.  0.
         25    1    4    4    0    0 -0.14582754226E+02 -0.35862651734E+02  0.60769215643E+03  0.62163980857E+03  0.12509000000E+03 0.  0.
         25    1    3    3    0    0  0.54850157545E+02  0.72139305656E+01  0.22556256610E+03  0.26379264565E+03  0.12509000000E+03 0.  0.
         25    1    4    4    0    0 -0.40267403320E+02  0.28648721168E+02  0.45063129894E+03  0.47027469492E+03  0.12509000000E+03 0.  0.
<mgrwt>
<rscale>  2 0.43540620E+03</rscale>
<asrwt>0</asrwt>
<pdfrwt beam="1">  1       21 0.19408770E+00 0.43540620E+03</pdfrwt>
<pdfrwt beam="2">  1       21 0.52809661E-02 0.43540620E+03</pdfrwt>
<totfact> 0.32163462E+04</totfact>
</mgrwt>
</event>
<event>
 7    0  0.4709932E-002  0.4378151E+03  0.7546771E-02  0.1031419E+00
         21   -1    0    0  502  501  0.00000000000E+00  0.00000000000E+00  0.18363642561E+03  0.18363642561E+03  0.00000000000E+00 0.  1.
         21   -1    0    0  501  502 -0.00000000000E+00 -0.00000000000E+00 -0.26095318377E+03  0.26095318377E+03  0.00000000000E+00 0.  1.
      99926    2    1    2    0    0  0.71054273576E-14  0.14210854715E-13 -0.77316758168E+02  0.44458960938E+03  0.43781507475E+03 0.  0.
      99925    2    3    3    0    0  0.58391867198E+02  0.66794320678E+02 -0.87413662581E+02  0.29089983416E+03  0.26288870968E+03 0.  0.
         25    1    4    4    0    0 -0.77427630623E+01  0.23377096837E+02 -0.23301719036E+02  0.12960292144E+03  0.12509000000E+03 0.  0.
         25    1    4    4    0    0  0.66134630260E+02  0.43417223841E+02 -0.64111943546E+02  0.16129691271E+03  0.12509000000E+03 0.  0.
         25    1    3    3    0    0 -0.58391867198E+02 -0.66794320678E+02  0.10096904414E+02  0.15368977522E+03  0.12509000000E+03 0.  0.
<mgrwt>
<rscale>  2 0.43781507E+03</rscale>
<asrwt>0</asrwt>
<pdfrwt beam="1">  1       21 0.27005357E-01 0.43781507E+03</pdfrwt>
<pdfrwt beam="2">  1       21 0.38375468E-01 0.43781507E+03</pdfrwt>
<totfact> 0.79690981E+04</totfact>
</mgrwt>
</event>
<event>
 7    0  0.4709932E-002  0.4603967E+03  0.7546771E-02  0.1024666E+00
         21   -1    0    0  502  501  0.00000000000E+00  0.00000000000E+00  0.94611731341E+03  0.94611731341E+03  0.00000000000E+00 0. -1.
         21   -1    0    0  501  502 -0.00000000000E+00 -0.00000000000E+00 -0.56009203334E+02  0.56009203334E+02  0.00000000000E+00 0. -1.
      99926    2    1    2    0    0  0.14210854715E-13 -0.17763568394E-14  0.89010811008E+03  0.10021265167E+04  0.46039668541E+03 0.  0.
      99925    2    3    3    0    0  0.76309089497E+02 -0.13841754322E+02  0.75132585963E+03  0.79983293691E+03  0.26311120903E+03 0.  0.
         25    1    3    3    0    0 -0.76309089497E+02  0.13841754322E+02  0.13878225045E+03  0.20229357983E+03  0.12509000000E+03 0.  0.
         25    1    4    4    0    0  0.70033545231E+02 -0.70081366158E+01  0.47830599420E+03  0.49937755619E+03  0.12509000000E+03 0.  0.
         25    1    4    4    0    0  0.62755442657E+01 -0.68336177061E+01  0.27301986543E+03  0.30045538072E+03  0.12509000000E+03 0.  0.
<mgrwt>
<rscale>  2 0.46039669E+03</rscale>
<asrwt>0</asrwt>
<pdfrwt beam="1">  1       21 0.13913489E+00 0.46039669E+03</pdfrwt>
<pdfrwt beam="2">  1       21 0.82366481E-02 0.46039669E+03</pdfrwt>
<totfact> 0.37479481E+04</totfact>
</mgrwt>
</event>
<event>
 7    0  0.4709932E-002  0.4563267E+03  0.7546771E-02  0.1025852E+00
         21   -1    0    0  502  501  0.00000000000E+00  0.00000000000E+00  0.13390635602E+03  0.13390635602E+03  0.00000000000E+00 0. -1.
         21   -1    0    0  501  502 -0.00000000000E+00 -0.00000000000E+00 -0.38876812508E+03  0.38876812508E+03  0.00000000000E+00 0. -1.
      99926    2    1    2    0    0 -0.14210854715E-13  0.00000000000E+00 -0.25486176906E+03  0.52267448110E+03  0.45632673805E+03 0.  0.
      99925    2    3    3    0    0 -0.84761363363E+02 -0.37933464888E+02 -0.84077126899E+02  0.29150714219E+03  0.26321856736E+03 0.  0.
         25    1    3    3    0    0  0.84761363363E+02  0.37933464888E+02 -0.17078464216E+03  0.23116733890E+03  0.12509000000E+03 0.  0.
         25    1    4    4    0    0 -0.70920009839E+02  0.86663632157E+01 -0.32099518543E+02  0.14758943335E+03  0.12509000000E+03 0.  0.
         25    1    4    4    0    0 -0.13841353524E+02 -0.46599828103E+02 -0.51977608356E+02  0.14391770884E+03  0.12509000000E+03 0.  0.
<mgrwt>
<rscale>  2 0.45632674E+03</rscale>
<asrwt>0</asrwt>
<pdfrwt beam="1">  1       21 0.19692111E-01 0.45632674E+03</pdfrwt>
<pdfrwt beam="2">  1       21 0.57171783E-01 0.45632674E+03</pdfrwt>
<totfact> 0.63039261E+04</totfact>
</mgrwt>
</event>
<event>
 7    0  0.4709932E-002  0.4528408E+03  0.7546771E-02  0.1026878E+00
         21   -1    0    0  502  501  0.00000000000E+00  0.00000000000E+00  0.24613356156E+03  0.24613356156E+03  0.00000000000E+00 0.  1.
         21   -1    0    0  501  502 -0.00000000000E+00 -0.00000000000E+00 -0.20828611700E+03  0.20828611700E+03  0.00000000000E+00 0.  1.
      99926    2    1    2    0    0  0.00000000000E+00  0.00000000000E+00  0.37847444567E+02  0.45441967856E+03  0.45284082767E+03 0.  0.
      99925    2    3    3    0    0 -0.63988738553E+01  0.11096391913E+03  0.24053829937E+02  0.28651581070E+03  0.26298058125E+03 0.  0.
         25    1    3    3    0    0  0.63988738553E+01 -0.11096391913E+03  0.13793614629E+02  0.16790386786E+03  0.12509000000E+03 0.  0.
         25    1    4    4    0    0 -0.25401874397E+02  0.29976945260E+02 -0.13088089656E+02  0.13176751747E+03  0.12509000000E+03 0.  0.
         25    1    4    4    0    0  0.19003000542E+02  0.80986973874E+02  0.37141919594E+02  0.15474829323E+03  0.12509000000E+03 0.  0.
<mgrwt>
<rscale>  2 0.45284083E+03</rscale>
<asrwt>0</asrwt>
<pdfrwt beam="1">  1       21 0.36196112E-01 0.45284083E+03</pdfrwt>
<pdfrwt beam="2">  1       21 0.30630311E-01 0.45284083E+03</pdfrwt>
<totfact> 0.69782802E+04</totfact>
</mgrwt>
</event>
<event>
 7    0  0.4709932E-002  0.4436935E+03  0.7546771E-02  0.1029620E+00
         21   -1    0    0  502  501  0.00000000000E+00  0.00000000000E+00  0.13998453626E+03  0.13998453626E+03  0.00000000000E+00 0. -1.
         21   -1    0    0  501  502 -0.00000000000E+00 -0.00000000000E+00 -0.35158152856E+03  0.35158152856E+03  0.00000000000E+00 0. -1.
      99926    2    1    2    0    0 -0.35527136788E-14  0.00000000000E+00 -0.21159699229E+03  0.49156606482E+03  0.44369348535E+03 0.  0.
      99925    2    3    3    0    0  0.19603797079E+02  0.45907576029E+02 -0.35646816374E+02  0.26998586060E+03  0.26292556934E+03 0.  0.
         25    1    4    4    0    0  0.46898571741E+02  0.31016917687E+02 -0.33009575437E+02  0.14106262930E+03  0.12509000000E+03 0.  0.
         25    1    4    4    0    0 -0.27294774662E+02  0.14890658342E+02 -0.26372409371E+01  0.12892323130E+03  0.12509000000E+03 0.  0.
         25    1    3    3    0    0 -0.19603797079E+02 -0.45907576029E+02 -0.17595017592E+03  0.22158020422E+03  0.12509000000E+03 0.  0.
<mgrwt>
<rscale>  2 0.44369349E+03</rscale>
<asrwt>0</asrwt>
<pdfrwt beam="1">  1       21 0.20585962E-01 0.44369349E+03</pdfrwt>
<pdfrwt beam="2">  1       21 0.51703164E-01 0.44369349E+03</pdfrwt>
<totfact> 0.72126825E+04</totfact>
</mgrwt>
</event>
<event>
 7    0  0.4709932E-002  0.4549085E+03  0.7546771E-02  0.1026268E+00
         21   -1    0    0  502  501  0.00000000000E+00  0.00000000000E+00  0.32069526296E+03  0.32069526296E+03  0.00000000000E+00 0.  1.
         21   -1    0    0  501  502 -0.00000000000E+00 -0.00000000000E+00 -0.16132275214E+03  0.16132275214E+03  0.00000000000E+00 0.  1.
      99926    2    1    2    0    0  0.00000000000E+00  0.35527136788E-14  0.15937251082E+03  0.48201801511E+03  0.45490852892E+03 0.  0.
      99925    2    3    3    0    0 -0.17626883924E+02 -0.21388673463E+02  0.21647651523E+03  0.34174486083E+03  0.26298153142E+03 0.  0.
         25    1    3    3    0    0  0.17626883924E+02  0.21388673463E+02 -0.57104004416E+02  0.14027315427E+03  0.12509000000E+03 0.  0.
         25    1    4    4    0    0  0.19057412220E+02  0.33195930968E+01  0.13944224462E+03  0.18832379654E+03  0.12509000000E+03 0.  0.
         25    1    4    4    0    0 -0.36684296144E+02 -0.24708266560E+02  0.77034270618E+02  0.15342106430E+03  0.12509000000E+03 0.  0.
<mgrwt>
<rscale>  2 0.45490853E+03</rscale>
<asrwt>0</asrwt>
<pdfrwt beam="1">  1       21 0.47161068E-01 0.45490853E+03</pdfrwt>
<pdfrwt beam="2">  1       21 0.23723934E-01 0.45490853E+03</pdfrwt>
<totfact> 0.66601841E+04</totfact>
</mgrwt>
</event>
<event>
 7    0  0.4709932E-002  0.4553995E+03  0.7546771E-02  0.1026124E+00
         21   -1    0    0  502  501  0.00000000000E+00  0.00000000000E+00  0.60478317551E+03  0.60478317551E+03  0.00000000000E+00 0. -1.
         21   -1    0    0  501  502 -0.00000000000E+00 -0.00000000000E+00 -0.85728546440E+02  0.85728546440E+02  0.00000000000E+00 0. -1.
      99926    2    1    2    0    0  0.14210854715E-13 -0.88817841970E-15  0.51905462907E+03  0.69051172195E+03  0.45539952810E+03 0.  0.
      99925    2    3    3    0    0 -0.95419009449E+02 -0.47268488089E+01  0.42073426663E+03  0.50492742241E+03  0.26231135760E+03 0.  0.
         25    1    3    3    0    0  0.95419009449E+02  0.47268488089E+01  0.98320362441E+02  0.18558429954E+03  0.12509000000E+03 0.  0.
         25    1    4    4    0    0 -0.23037512213E+02 -0.55920797538E+01  0.14039122700E+03  0.18952362133E+03  0.12509000000E+03 0.  0.
         25    1    4    4    0    0 -0.72381497237E+02  0.86523094490E+00  0.28034303963E+03  0.31540380108E+03  0.12509000000E+03 0.  0.
<mgrwt>
<rscale>  2 0.45539953E+03</rscale>
<asrwt>0</asrwt>
<pdfrwt beam="1">  1       21 0.88938700E-01 0.45539953E+03</pdfrwt>
<pdfrwt beam="2">  1       21 0.12607140E-01 0.45539953E+03</pdfrwt>
<totfact> 0.53253556E+04</totfact>
</mgrwt>
</event>
<event>
 7    0  0.4709932E-002  0.4585439E+03  0.7546771E-02  0.1025204E+00
         21   -1    0    0  502  501  0.00000000000E+00  0.00000000000E+00  0.41315286588E+03  0.41315286588E+03  0.00000000000E+00 0.  1.
         21   -1    0    0  501  502 -0.00000000000E+00 -0.00000000000E+00 -0.12723045429E+03  0.12723045429E+03  0.00000000000E+00 0.  1.
      99926    2    1    2    0    0  0.00000000000E+00  0.14210854715E-13  0.28592241159E+03  0.54038332016E+03  0.45854389895E+03 0.  0.
      99925    2    3    3    0    0  0.33310033363E+02 -0.80237419648E+02  0.27077412632E+03  0.38733241203E+03  0.26298320876E+03 0.  0.
         25    1    3    3    0    0 -0.33310033363E+02  0.80237419648E+02  0.15148285268E+02  0.15305090813E+03  0.12509000000E+03 0.  0.
         25    1    4    4    0    0  0.19488884055E+02 -0.27707811180E+02  0.78202757022E+02  0.15136287097E+03  0.12509000000E+03 0.  0.
         25    1    4    4    0    0  0.13821149308E+02 -0.52529608467E+02  0.19257136930E+03  0.23596954106E+03  0.12509000000E+03 0.  0.
<mgrwt>
<rscale>  2 0.45854390E+03</rscale>
<asrwt>0</asrwt>
<pdfrwt beam="1">  1       21 0.60757774E-01 0.45854390E+03</pdfrwt>
<pdfrwt beam="2">  1       21 0.18710361E-01 0.45854390E+03</pdfrwt>
<totfact> 0.60783726E+04</totfact>
</mgrwt>
</event>
<event>
 7    0  0.4709932E-002  0.4604349E+03  0.7546771E-02  0.1024655E+00
         21   -1    0    0  502  501  0.00000000000E+00  0.00000000000E+00  0.31498828533E+04  0.31498828533E+04  0.00000000000E+00 0. -1.
         21   -1    0    0  501  502 -0.00000000000E+00 -0.00000000000E+00 -0.16826047980E+02  0.16826047980E+02  0.00000000000E+00 0. -1.
      99926    2    1    2    0    0 -0.44408920985E-15  0.00000000000E+00  0.31330568053E+04  0.31667089013E+04  0.46043492492E+03 0.  0.
      99925    2    3    3    0    0  0.17555154939E+01  0.37193246387E+02  0.11907792153E+04  0.12200512107E+04  0.26302737079E+03 0.  0.
         25    1    4    4    0    0 -0.24283873964E+02 -0.51136452907E+01  0.48070528894E+03  0.49733383036E+03  0.12509000000E+03 0.  0.
         25    1    3    3    0    0 -0.17555154939E+01 -0.37193246387E+02  0.19422775900E+04  0.19466576906E+04  0.12509000000E+03 0.  0.
         25    1    4    4    0    0  0.26039389458E+02  0.42306891678E+02  0.71007392635E+03  0.72271738036E+03  0.12509000000E+03 0.  0.
<mgrwt>
<rscale>  2 0.46043492E+03</rscale>
<asrwt>0</asrwt>
<pdfrwt beam="1">  1       21 0.46321766E+00 0.46043492E+03</pdfrwt>
<pdfrwt beam="2">  1       21 0.24744210E-02 0.46043492E+03</pdfrwt>
<totfact> 0.23219061E+03</totfact>
</mgrwt>
</event>
<event>
 7    0  0.4709932E-002  0.4604188E+03  0.7546771E-02  0.1024660E+00
         21   -1    0    0  502  501  0.00000000000E+00  0.00000000000E+00  0.89911703844E+03  0.89911703844E+03  0.00000000000E+00 0. -1.
         21   -1    0    0  501  502 -0.00000000000E+00 -0.00000000000E+00 -0.58942673867E+02  0.58942673867E+02  0.00000000000E+00 0. -1.
      99926    2    1    2    0    0  0.14210854715E-13 -0.71054273576E-14  0.84017436458E+03  0.95805971231E+03  0.46041877618E+03 0.  0.
      99925    2    3    3    0    0 -0.95587298119E+02  0.22175730320E+02  0.66246889563E+03  0.71961593200E+03  0.26335025599E+03 0.  0.
         25    1    4    4    0    0 -0.35084091867E+02 -0.11776065052E+02  0.23405425308E+03  0.26795236647E+03  0.12509000000E+03 0.  0.
         25    1    3    3    0    0  0.95587298119E+02 -0.22175730320E+02  0.17770546894E+03  0.23844378031E+03  0.12509000000E+03 0.  0.
         25    1    4    4    0    0 -0.60503206252E+02  0.33951795372E+02  0.42841464255E+03  0.45166356553E+03  0.12509000000E+03 0.  0.
<mgrwt>
<rscale>  2 0.46041878E+03</rscale>
<asrwt>0</asrwt>
<pdfrwt beam="1">  1       21 0.13222309E+00 0.46041878E+03</pdfrwt>
<pdfrwt beam="2">  1       21 0.86680408E-02 0.46041878E+03</pdfrwt>
<totfact> 0.39131663E+04</totfact>
</mgrwt>
</event>
<event>
 7    0  0.4709932E-002  0.4661349E+03  0.7546771E-02  0.1023017E+00
         21   -1    0    0  502  501  0.00000000000E+00  0.00000000000E+00  0.20588567987E+03  0.20588567987E+03  0.00000000000E+00 0. -1.
         21   -1    0    0  501  502 -0.00000000000E+00 -0.00000000000E+00 -0.26383780579E+03  0.26383780579E+03  0.00000000000E+00 0. -1.
      99926    2    1    2    0    0  0.14210854715E-13  0.00000000000E+00 -0.57952125917E+02  0.46972348566E+03  0.46613485611E+03 0.  0.
      99925    2    3    3    0    0  0.99622351776E+02  0.53481475365E+02 -0.85730000563E+02  0.29883170821E+03  0.26299406011E+03 0.  0.
         25    1    4    4    0    0  0.78894768688E+02 -0.18001373766E+01 -0.41646210122E+02  0.15365396167E+03  0.12509000000E+03 0.  0.
         25    1    4    4    0    0  0.20727583089E+02  0.55281612741E+02 -0.44083790441E+02  0.14517774653E+03  0.12509000000E+03 0.  0.
         25    1    3    3    0    0 -0.99622351776E+02 -0.53481475365E+02  0.27777874646E+02  0.17089177745E+03  0.12509000000E+03 0.  0.
<mgrwt>
<rscale>  2 0.46613486E+03</rscale>
<asrwt>0</asrwt>
<pdfrwt beam="1">  1       21 0.30277306E-01 0.46613486E+03</pdfrwt>
<pdfrwt beam="2">  1       21 0.38799677E-01 0.46613486E+03</pdfrwt>
<totfact> 0.61804386E+04</totfact>
</mgrwt>
</event>
<event>
 7    0  0.4709932E-002  0.4509833E+03  0.7546771E-02  0.1027429E+00
         21   -1    0    0  502  501  0.00000000000E+00  0.00000000000E+00  0.55776609361E+03  0.55776609361E+03  0.00000000000E+00 0. -1.
         21   -1    0    0  501  502 -0.00000000000E+00 -0.00000000000E+00 -0.91160937197E+02  0.91160937197E+02  0.00000000000E+00 0. -1.
      99926    2    1    2    0    0  0.00000000000E+00  0.00000000000E+00  0.46660515641E+03  0.64892703081E+03  0.45098328053E+03 0.  0.
      99925    2    3    3    0    0  0.51691196957E+02 -0.75935680125E+02  0.20911952047E+03  0.34828676708E+03  0.26293438520E+03 0.  0.
         25    1    4    4    0    0  0.16156019150E+02 -0.55599256629E+02  0.15086064711E+03  0.20434954671E+03  0.12509000000E+03 0.  0.
         25    1    3    3    0    0 -0.51691196957E+02  0.75935680125E+02  0.25748563594E+03  0.30064026373E+03  0.12509000000E+03 0.  0.
         25    1    4    4    0    0  0.35535177807E+02 -0.20336423496E+02  0.58258873356E+02  0.14393722037E+03  0.12509000000E+03 0.  0.
<mgrwt>
<rscale>  2 0.45098328E+03</rscale>
<asrwt>0</asrwt>
<pdfrwt beam="1">  1       21 0.82024424E-01 0.45098328E+03</pdfrwt>
<pdfrwt beam="2">  1       21 0.13406020E-01 0.45098328E+03</pdfrwt>
<totfact> 0.57565909E+04</totfact>
</mgrwt>
</event>
<event>
 7    0  0.4709932E-002  0.4142554E+03  0.7546771E-02  0.1038952E+00
         21   -1    0    0  502  501  0.00000000000E+00  0.00000000000E+00  0.13853893038E+04  0.13853893038E+04  0.00000000000E+00 0. -1.
         21   -1    0    0  501  502 -0.00000000000E+00 -0.00000000000E+00 -0.30967386244E+02  0.30967386244E+02  0.00000000000E+00 0. -1.
      99926    2    1    2    0    0  0.00000000000E+00  0.00000000000E+00  0.13544219176E+04  0.14163566901E+04  0.41425540754E+03 0.  0.
      99925    2    3    3    0    0 -0.53669171181E+02  0.24017393824E+02  0.10074568368E+04  0.10428737714E+04  0.26298138709E+03 0.  0.
         25    1    4    4    0    0  0.96176939042E+01  0.30541106903E+02  0.47797892068E+03  0.49511273056E+03  0.12509000000E+03 0.  0.
         25    1    3    3    0    0  0.53669171181E+02 -0.24017393824E+02  0.34696508075E+03  0.37348291862E+03  0.12509000000E+03 0.  0.
         25    1    4    4    0    0 -0.63286865085E+02 -0.65237130783E+01  0.52947791614E+03  0.54776104088E+03  0.12509000000E+03 0.  0.
<mgrwt>
<rscale>  2 0.41425541E+03</rscale>
<asrwt>0</asrwt>
<pdfrwt beam="1">  1       21 0.20373368E+00 0.41425541E+03</pdfrwt>
<pdfrwt beam="2">  1       21 0.45540283E-02 0.41425541E+03</pdfrwt>
<totfact> 0.36026754E+04</totfact>
</mgrwt>
</event>
<event>
 7    0  0.4709932E-002  0.4547537E+03  0.7546771E-02  0.1026314E+00
         21   -1    0    0  502  501  0.00000000000E+00  0.00000000000E+00  0.99053122772E+03  0.99053122772E+03  0.00000000000E+00 0. -1.
         21   -1    0    0  501  502 -0.00000000000E+00 -0.00000000000E+00 -0.52194437965E+02  0.52194437965E+02  0.00000000000E+00 0. -1.
      99926    2    1    2    0    0 -0.35527136788E-14  0.00000000000E+00  0.93833678976E+03  0.10427256657E+04  0.45475365075E+03 0.  0.
      99925    2    3    3    0    0  0.30900609403E+02 -0.10257847513E+03  0.50858712359E+03  0.58249803191E+03  0.26299411338E+03 0.  0.
         25    1    4    4    0    0 -0.96162015331E+01 -0.80049098560E+02  0.30026455732E+03  0.33512183157E+03  0.12509000000E+03 0.  0.
         25    1    3    3    0    0 -0.30900609403E+02  0.10257847513E+03  0.42974966617E+03  0.46022763378E+03  0.12509000000E+03 0.  0.
         25    1    4    4    0    0  0.40516810937E+02 -0.22529376572E+02  0.20832256627E+03  0.24737620034E+03  0.12509000000E+03 0.  0.
<mgrwt>
<rscale>  2 0.45475365E+03</rscale>
<asrwt>0</asrwt>
<pdfrwt beam="1">  1       21 0.14566635E+00 0.45475365E+03</pdfrwt>
<pdfrwt beam="2">  1       21 0.76756533E-02 0.45475365E+03</pdfrwt>
<totfact> 0.37617732E+04</totfact>
</mgrwt>
</event>
<event>
 7    0  0.4709932E-002  0.4545361E+03  0.7546771E-02  0.1026378E+00
         21   -1    0    0  502  501  0.00000000000E+00  0.00000000000E+00  0.22471732585E+02  0.22471732585E+02  0.00000000000E+00 0. -1.
         21   -1    0    0  501  502 -0.00000000000E+00 -0.00000000000E+00 -0.22984772220E+04  0.22984772220E+04  0.00000000000E+00 0. -1.
      99926    2    1    2    0    0 -0.35527136788E-14  0.14210854715E-13 -0.22760054895E+04  0.23209489546E+04  0.45453609532E+03 0.  0.
      99925    2    3    3    0    0 -0.16481897034E+02  0.99983541627E+02 -0.11813929040E+04  0.12145617792E+04  0.26306417551E+03 0.  0.
         25    1    4    4    0    0 -0.22557994699E+02  0.83928364013E+02 -0.55201629488E+03  0.57264503082E+03  0.12509000000E+03 0.  0.
         25    1    3    3    0    0  0.16481897034E+02 -0.99983541627E+02 -0.10946125855E+04  0.11063871754E+04  0.12509000000E+03 0.  0.
         25    1    4    4    0    0  0.60760976646E+01  0.16055177614E+02 -0.62937660912E+03  0.64191674842E+03  0.12509000000E+03 0.  0.
<mgrwt>
<rscale>  2 0.45453610E+03</rscale>
<asrwt>0</asrwt>
<pdfrwt beam="1">  1       21 0.33046667E-02 0.45453610E+03</pdfrwt>
<pdfrwt beam="2">  1       21 0.33801134E+00 0.45453610E+03</pdfrwt>
<totfact> 0.91749717E+03</totfact>
</mgrwt>
</event>
<event>
 7    0  0.4709932E-002  0.4537295E+03  0.7546771E-02  0.1026616E+00
         21   -1    0    0  502  501  0.00000000000E+00  0.00000000000E+00  0.73085067257E+02  0.73085067257E+02  0.00000000000E+00 0. -1.
         21   -1    0    0  501  502 -0.00000000000E+00 -0.00000000000E+00 -0.70421522826E+03  0.70421522826E+03  0.00000000000E+00 0. -1.
      99926    2    1    2    0    0 -0.71054273576E-14  0.00000000000E+00 -0.63113016100E+03  0.77730029552E+03  0.45372951114E+03 0.  0.
      99925    2    3    3    0    0 -0.59960927913E+02 -0.32821715560E+02 -0.24569085470E+03  0.36634586394E+03  0.26300706845E+03 0.  0.
         25    1    3    3    0    0  0.59960927913E+02  0.32821715560E+02 -0.38543930630E+03  0.41095443157E+03  0.12509000000E+03 0.  0.
         25    1    4    4    0    0  0.43328382493E+01  0.67627262007E+01 -0.10507257984E+03  0.16356119065E+03  0.12509000000E+03 0.  0.
         25    1    4    4    0    0 -0.64293766163E+02 -0.39584441761E+02 -0.14061827487E+03  0.20278467329E+03  0.12509000000E+03 0.  0.
<mgrwt>
<rscale>  2 0.45372951E+03</rscale>
<asrwt>0</asrwt>
<pdfrwt beam="1">  1       21 0.10747804E-01 0.45372951E+03</pdfrwt>
<pdfrwt beam="2">  1       21 0.10356106E+00 0.45372951E+03</pdfrwt>
<totfact> 0.49372937E+04</totfact>
</mgrwt>
</event>
<event>
 7    0  0.4709932E-002  0.4326489E+03  0.7546771E-02  0.1033026E+00
         21   -1    0    0  502  501  0.00000000000E+00  0.00000000000E+00  0.23572291601E+03  0.23572291601E+03  0.00000000000E+00 0. -1.
         21   -1    0    0  501  502 -0.00000000000E+00 -0.00000000000E+00 -0.19852237744E+03  0.19852237744E+03  0.00000000000E+00 0. -1.
      99926    2    1    2    0    0  0.00000000000E+00  0.00000000000E+00  0.37200538572E+02  0.43424529344E+03  0.43264892790E+03 0.  0.
      99925    2    3    3    0    0  0.43260395612E+02 -0.42728991063E+02  0.91381243340E+02  0.28497947226E+03  0.26299342096E+03 0.  0.
         25    1    3    3    0    0 -0.43260395612E+02  0.42728991063E+02 -0.54180704768E+02  0.14926582119E+03  0.12509000000E+03 0.  0.
         25    1    4    4    0    0  0.24441025830E+02  0.14128771170E+02  0.65132781658E+02  0.14382897227E+03  0.12509000000E+03 0.  0.
         25    1    4    4    0    0  0.18819369782E+02 -0.56857762233E+02  0.26248461682E+02  0.14115049998E+03  0.12509000000E+03 0.  0.
<mgrwt>
<rscale>  2 0.43264893E+03</rscale>
<asrwt>0</asrwt>
<pdfrwt beam="1">  1       21 0.34665135E-01 0.43264893E+03</pdfrwt>
<pdfrwt beam="2">  1       21 0.29194467E-01 0.43264893E+03</pdfrwt>
<totfact> 0.84124348E+04</totfact>
</mgrwt>
</event>
<event>
 7    0  0.4709932E-002  0.4545869E+03  0.7546771E-02  0.1026363E+00
         21   -1    0    0  502  501  0.00000000000E+00  0.00000000000E+00  0.62407574419E+03  0.62407574419E+03  0.00000000000E+00 0.  1.
         21   -1    0    0  501  502 -0.00000000000E+00 -0.00000000000E+00 -0.82782120126E+02  0.82782120126E+02  0.00000000000E+00 0.  1.
      99926    2    1    2    0    0 -0.17763568394E-14  0.00000000000E+00  0.54129362406E+03  0.70685786432E+03  0.45458690357E+03 0.  0.
      99925    2    3    3    0    0  0.14168353691E+02  0.70651292326E+02  0.47564501992E+03  0.54827162696E+03  0.26300426726E+03 0.  0.
         25    1    4    4    0    0 -0.16964204587E+02  0.26371698253E+02  0.29516167661E+03  0.32210429079E+03  0.12509000000E+03 0.  0.
         25    1    3    3    0    0 -0.14168353691E+02 -0.70651292326E+02  0.65648604140E+02  0.15858623736E+03  0.12509000000E+03 0.  0.
         25    1    4    4    0    0  0.31132558277E+02  0.44279594073E+02  0.18048334331E+03  0.22616733617E+03  0.12509000000E+03 0.  0.
<mgrwt>
<rscale>  2 0.45458690E+03</rscale>
<asrwt>0</asrwt>
<pdfrwt beam="1">  1       21 0.91775842E-01 0.45458690E+03</pdfrwt>
<pdfrwt beam="2">  1       21 0.12173842E-01 0.45458690E+03</pdfrwt>
<totfact> 0.52703299E+04</totfact>
</mgrwt>
</event>
<event>
 7    0  0.4709932E-002  0.4473520E+03  0.7546771E-02  0.1028515E+00
         21   -1    0    0  502  501  0.00000000000E+00  0.00000000000E+00  0.39128580932E+03  0.39128580932E+03  0.00000000000E+00 0.  1.
         21   -1    0    0  501  502 -0.00000000000E+00 -0.00000000000E+00 -0.12786293318E+03  0.12786293318E+03  0.00000000000E+00 0.  1.
      99926    2    1    2    0    0  0.00000000000E+00  0.00000000000E+00  0.26342287614E+03  0.51914874250E+03  0.44735199247E+03 0.  0.
      99925    2    3    3    0    0 -0.37826697747E+02  0.60800417355E+02  0.25742324258E+03  0.37488837540E+03  0.26295820652E+03 0.  0.
         25    1    4    4    0    0  0.56198958854E+01  0.46788289359E+02  0.90806464417E+02  0.16159841995E+03  0.12509000000E+03 0.  0.
         25    1    4    4    0    0 -0.43446593632E+02  0.14012127996E+02  0.16661677817E+03  0.21328995545E+03  0.12509000000E+03 0.  0.
         25    1    3    3    0    0  0.37826697747E+02 -0.60800417355E+02  0.59996335542E+01  0.14426036710E+03  0.12509000000E+03 0.  0.
<mgrwt>
<rscale>  2 0.44735199E+03</rscale>
<asrwt>0</asrwt>
<pdfrwt beam="1">  1       21 0.57542031E-01 0.44735199E+03</pdfrwt>
<pdfrwt beam="2">  1       21 0.18803373E-01 0.44735199E+03</pdfrwt>
<totfact> 0.67975883E+04</totfact>
</mgrwt>
</event>
<event>
 7    0  0.4709932E-002  0.4763315E+03  0.7546771E-02  0.1020148E+00
         21   -1    0    0  502  501  0.00000000000E+00  0.00000000000E+00  0.51286304875E+02  0.51286304875E+02  0.00000000000E+00 0. -1.
         21   -1    0    0  501  502 -0.00000000000E+00 -0.00000000000E+00 -0.11060054832E+04  0.11060054832E+04  0.00000000000E+00 0. -1.
      99926    2    1    2    0    0  0.35527136788E-14  0.00000000000E+00 -0.10547191783E+04  0.11572917880E+04  0.47633154169E+03 0.  0.
      99925    2    3    3    0    0 -0.31490420937E+02  0.20071860101E+02 -0.34351309576E+03  0.43420387768E+03  0.26293960192E+03 0.  0.
         25    1    4    4    0    0  0.65935332742E+01  0.18002450269E+02 -0.11541692469E+03  0.17127795393E+03  0.12509000000E+03 0.  0.
         25    1    4    4    0    0 -0.38083954211E+02  0.20694098319E+01 -0.22809617107E+03  0.26292592375E+03  0.12509000000E+03 0.  0.
         25    1    3    3    0    0  0.31490420937E+02 -0.20071860101E+02 -0.71120608252E+03  0.72308791035E+03  0.12509000000E+03 0.  0.
<mgrwt>
<rscale>  2 0.47633154E+03</rscale>
<asrwt>0</asrwt>
<pdfrwt beam="1">  1       21 0.75421039E-02 0.47633154E+03</pdfrwt>
<pdfrwt beam="2">  1       21 0.16264786E+00 0.47633154E+03</pdfrwt>
<totfact> 0.28499041E+04</totfact>
</mgrwt>
</event>
<event>
 7    0  0.4709932E-002  0.4582790E+03  0.7546771E-02  0.1025282E+00
         21   -1    0    0  502  501  0.00000000000E+00  0.00000000000E+00  0.10315498043E+04  0.10315498043E+04  0.00000000000E+00 0.  1.
         21   -1    0    0  501  502 -0.00000000000E+00 -0.00000000000E+00 -0.50899065506E+02  0.50899065506E+02  0.00000000000E+00 0.  1.
      99926    2    1    2    0    0  0.00000000000E+00  0.00000000000E+00  0.98065073883E+03  0.10824488698E+04  0.45827904627E+03 0.  0.
      99925    2    3    3    0    0 -0.48939414749E+02  0.98992476033E+02  0.70076210004E+03  0.75659654922E+03  0.26301376546E+03 0.  0.
         25    1    3    3    0    0  0.48939414749E+02 -0.98992476033E+02  0.27988863879E+03  0.32585232062E+03  0.12509000000E+03 0.  0.
         25    1    4    4    0    0 -0.28621576964E+02  0.38431320972E+02  0.44599174515E+03  0.46567403400E+03  0.12509000000E+03 0.  0.
         25    1    4    4    0    0 -0.20317837785E+02  0.60561155061E+02  0.25477035489E+03  0.29092251522E+03  0.12509000000E+03 0.  0.
<mgrwt>
<rscale>  2 0.45827905E+03</rscale>
<asrwt>0</asrwt>
<pdfrwt beam="1">  1       21 0.15169849E+00 0.45827905E+03</pdfrwt>
<pdfrwt beam="2">  1       21 0.74851574E-02 0.45827905E+03</pdfrwt>
<totfact> 0.35199549E+04</totfact>
</mgrwt>
</event>
<event>
 7    0  0.4709932E-002  0.4556674E+03  0.7546771E-02  0.1026045E+00
         21   -1    0    0  502  501  0.00000000000E+00  0.00000000000E+00  0.23207229329E+03  0.23207229329E+03  0.00000000000E+00 0. -1.
         21   -1    0    0  501  502 -0.00000000000E+00 -0.00000000000E+00 -0.22367249130E+03  0.22367249130E+03  0.00000000000E+00 0. -1.
      99926    2    1    2    0    0  0.00000000000E+00  0.00000000000E+00  0.83998019915E+01  0.45574478459E+03  0.45566736992E+03 0.  0.
      99925    2    3    3    0    0 -0.55586475269E+02 -0.95972517184E+02 -0.20766569628E+02  0.28604279397E+03  0.26284719759E+03 0.  0.
         25    1    4    4    0    0 -0.24884382149E+02 -0.50968550239E+02 -0.50614643474E+02  0.14637751133E+03  0.12509000000E+03 0.  0.
         25    1    3    3    0    0  0.55586475269E+02  0.95972517184E+02  0.29166371619E+02  0.16970199062E+03  0.12509000000E+03 0.  0.
         25    1    4    4    0    0 -0.30702093120E+02 -0.45003966945E+02  0.29848073847E+02  0.13966528264E+03  0.12509000000E+03 0.  0.
<mgrwt>
<rscale>  2 0.45566737E+03</rscale>
<asrwt>0</asrwt>
<pdfrwt beam="1">  1       21 0.34128279E-01 0.45566737E+03</pdfrwt>
<pdfrwt beam="2">  1       21 0.32893013E-01 0.45566737E+03</pdfrwt>
<totfact> 0.68127769E+04</totfact>
</mgrwt>
</event>
<event>
 7    0  0.4709932E-002  0.4482816E+03  0.7546771E-02  0.1028236E+00
         21   -1    0    0  502  501  0.00000000000E+00  0.00000000000E+00  0.14824892781E+04  0.14824892781E+04  0.00000000000E+00 0. -1.
         21   -1    0    0  501  502 -0.00000000000E+00 -0.00000000000E+00 -0.33888343104E+02  0.33888343104E+02  0.00000000000E+00 0. -1.
      99926    2    1    2    0    0  0.00000000000E+00  0.00000000000E+00  0.14486009350E+04  0.15163776212E+04  0.44828163159E+03 0.  0.
      99925    2    3    3    0    0  0.46701907054E+02 -0.50116089579E+02  0.64034072792E+03  0.69563115548E+03  0.26300906084E+03 0.  0.
         25    1    3    3    0    0 -0.46701907054E+02  0.50116089579E+02  0.80826020709E+03  0.82074646573E+03  0.12509000000E+03 0.  0.
         25    1    4    4    0    0  0.32806803928E+02 -0.52958584411E+02  0.26265261779E+03  0.29751437575E+03  0.12509000000E+03 0.  0.
         25    1    4    4    0    0  0.13895103126E+02  0.28424948323E+01  0.37768811013E+03  0.39811677973E+03  0.12509000000E+03 0.  0.
<mgrwt>
<rscale>  2 0.44828163E+03</rscale>
<asrwt>0</asrwt>
<pdfrwt beam="1">  1       21 0.21801309E+00 0.44828163E+03</pdfrwt>
<pdfrwt beam="2">  1       21 0.49835808E-02 0.44828163E+03</pdfrwt>
<totfact> 0.24641559E+04</totfact>
</mgrwt>
</event>
<event>
 7    0  0.4709932E-002  0.4521541E+03  0.7546771E-02  0.1027082E+00
         21   -1    0    0  502  501  0.00000000000E+00  0.00000000000E+00  0.37175111286E+03  0.37175111286E+03  0.00000000000E+00 0. -1.
         21   -1    0    0  501  502 -0.00000000000E+00 -0.00000000000E+00 -0.13748668857E+03  0.13748668857E+03  0.00000000000E+00 0. -1.
      99926    2    1    2    0    0  0.00000000000E+00  0.00000000000E+00  0.23426442429E+03  0.50923780143E+03  0.45215408647E+03 0.  0.
      99925    2    3    3    0    0  0.80303159370E+02  0.64519512237E+02  0.10437334038E+03  0.30155880238E+03  0.26350057352E+03 0.  0.
         25    1    3    3    0    0 -0.80303159370E+02 -0.64519512237E+02  0.12989108392E+03  0.20767899905E+03  0.12509000000E+03 0.  0.
         25    1    4    4    0    0  0.53339183635E+02  0.73578104574E+02  0.55245236924E+02  0.16418998230E+03  0.12509000000E+03 0.  0.
         25    1    4    4    0    0  0.26963975734E+02 -0.90585923376E+01  0.49128103452E+02  0.13736882008E+03  0.12509000000E+03 0.  0.
<mgrwt>
<rscale>  2 0.45215409E+03</rscale>
<asrwt>0</asrwt>
<pdfrwt beam="1">  1       21 0.54669281E-01 0.45215409E+03</pdfrwt>
<pdfrwt beam="2">  1       21 0.20218631E-01 0.45215409E+03</pdfrwt>
<totfact> 0.66106911E+04</totfact>
</mgrwt>
</event>
<event>
 7    0  0.4709932E-002  0.4558555E+03  0.7546771E-02  0.1025990E+00
         21   -1    0    0  502  501  0.00000000000E+00  0.00000000000E+00  0.49554629457E+02  0.49554629457E+02  0.00000000000E+00 0. -1.
         21   -1    0    0  501  502 -0.00000000000E+00 -0.00000000000E+00 -0.10483592511E+04  0.10483592511E+04  0.00000000000E+00 0. -1.
      99926    2    1    2    0    0  0.71054273576E-14  0.00000000000E+00 -0.99880462164E+03  0.10979138806E+04  0.45585547809E+03 0.  0.
      99925    2    3    3    0    0  0.42729832225E+02  0.82762456485E+02 -0.46983622331E+03  0.54643356604E+03  0.26299829390E+03 0.  0.
         25    1    4    4    0    0  0.55130534140E+02  0.18873946965E+02 -0.23180070352E+03  0.26976781855E+03  0.12509000000E+03 0.  0.
         25    1    3    3    0    0 -0.42729832225E+02 -0.82762456485E+02 -0.52896839833E+03  0.55148031451E+03  0.12509000000E+03 0.  0.
         25    1    4    4    0    0 -0.12400701915E+02  0.63888509520E+02 -0.23803551979E+03  0.27666574750E+03  0.12509000000E+03 0.  0.
<mgrwt>
<rscale>  2 0.45585548E+03</rscale>
<asrwt>0</asrwt>
<pdfrwt beam="1">  1       21 0.72874457E-02 0.45585548E+03</pdfrwt>
<pdfrwt beam="2">  1       21 0.15417047E+00 0.45585548E+03</pdfrwt>
<totfact> 0.35330297E+04</totfact>
</mgrwt>
</event>
<event>
 7    0  0.4709932E-002  0.4514774E+03  0.7546771E-02  0.1027282E+00
         21   -1    0    0  502  501  0.00000000000E+00  0.00000000000E+00  0.14509249143E+03  0.14509249143E+03  0.00000000000E+00 0. -1.
         21   -1    0    0  501  502 -0.00000000000E+00 -0.00000000000E+00 -0.35121014419E+03  0.35121014419E+03  0.00000000000E+00 0. -1.
      99926    2    1    2    0    0  0.14210854715E-13  0.00000000000E+00 -0.20611765276E+03  0.49630263562E+03  0.45147737412E+03 0.  0.
      99925    2    3    3    0    0  0.65138540970E+02 -0.47900341425E+02 -0.47862557687E+02  0.27897878639E+03  0.26268016027E+03 0.  0.
         25    1    4    4    0    0  0.29031834989E+02 -0.57649624742E+02 -0.25719529334E+01  0.14078511895E+03  0.12509000000E+03 0.  0.
         25    1    3    3    0    0 -0.65138540970E+02  0.47900341425E+02 -0.15825509507E+03  0.21732384923E+03  0.12509000000E+03 0.  0.
         25    1    4    4    0    0  0.36106705981E+02  0.97492833169E+01 -0.45290604754E+02  0.13819366744E+03  0.12509000000E+03 0.  0.
<mgrwt>
<rscale>  2 0.45147737E+03</rscale>
<asrwt>0</asrwt>
<pdfrwt beam="1">  1       21 0.21337131E-01 0.45147737E+03</pdfrwt>
<pdfrwt beam="2">  1       21 0.51648550E-01 0.45147737E+03</pdfrwt>
<totfact> 0.67396204E+04</totfact>
</mgrwt>
</event>
<event>
 7    0  0.4709932E-002  0.4528757E+03  0.7546771E-02  0.1026868E+00
         21   -1    0    0  502  501  0.00000000000E+00  0.00000000000E+00  0.10745112350E+04  0.10745112350E+04  0.00000000000E+00 0.  1.
         21   -1    0    0  501  502 -0.00000000000E+00 -0.00000000000E+00 -0.47718537642E+02  0.47718537642E+02  0.00000000000E+00 0.  1.
      99926    2    1    2    0    0 -0.88817841970E-15  0.00000000000E+00  0.10267926974E+04  0.11222297727E+04  0.45287572165E+03 0.  0.
      99925    2    3    3    0    0  0.34180118112E+01 -0.55251846520E+02  0.40852752227E+03  0.48901276073E+03  0.26301006512E+03 0.  0.
         25    1    4    4    0    0  0.25965133287E+02  0.19626701207E+01  0.16877445014E+03  0.21168458456E+03  0.12509000000E+03 0.  0.
         25    1    4    4    0    0 -0.22547121476E+02 -0.57214516641E+02  0.23975307213E+03  0.27732817616E+03  0.12509000000E+03 0.  0.
         25    1    3    3    0    0 -0.34180118112E+01  0.55251846520E+02  0.61826517510E+03  0.63321701192E+03  0.12509000000E+03 0.  0.
<mgrwt>
<rscale>  2 0.45287572E+03</rscale>
<asrwt>0</asrwt>
<pdfrwt beam="1">  1       21 0.15801634E+00 0.45287572E+03</pdfrwt>
<pdfrwt beam="2">  1       21 0.70174327E-02 0.45287572E+03</pdfrwt>
<totfact> 0.35304244E+04</totfact>
</mgrwt>
</event>
<event>
 7    0  0.4709932E-002  0.4538471E+03  0.7546771E-02  0.1026581E+00
         21   -1    0    0  502  501  0.00000000000E+00  0.00000000000E+00  0.76222659992E+02  0.76222659992E+02  0.00000000000E+00 0.  1.
         21   -1    0    0  501  502 -0.00000000000E+00 -0.00000000000E+00 -0.67557731339E+03  0.67557731339E+03  0.00000000000E+00 0.  1.
      99926    2    1    2    0    0  0.35527136788E-14  0.14210854715E-13 -0.59935465340E+03  0.75179997339E+03  0.45384711019E+03 0.  0.
      99925    2    3    3    0    0  0.21301975914E+02 -0.10916467415E+03 -0.35400756502E+03  0.45479256247E+03  0.26295288272E+03 0.  0.
         25    1    3    3    0    0 -0.21301975914E+02  0.10916467415E+03 -0.24534708838E+03  0.29700741091E+03  0.12509000000E+03 0.  0.
         25    1    4    4    0    0  0.48554126327E+02 -0.61078047414E+02 -0.20542606924E+03  0.25285452157E+03  0.12509000000E+03 0.  0.
         25    1    4    4    0    0 -0.27252150413E+02 -0.48086626733E+02 -0.14858149578E+03  0.20193804090E+03  0.12509000000E+03 0.  0.
<mgrwt>
<rscale>  2 0.45384711E+03</rscale>
<asrwt>0</asrwt>
<pdfrwt beam="1">  1       21 0.11209215E-01 0.45384711E+03</pdfrwt>
<pdfrwt beam="2">  1       21 0.99349601E-01 0.45384711E+03</pdfrwt>
<totfact> 0.50636401E+04</totfact>
</mgrwt>
</event>
<event>
 7    0  0.4709932E-002  0.4538241E+03  0.7546771E-02  0.1026588E+00
         21   -1    0    0  502  501  0.00000000000E+00  0.00000000000E+00  0.42922383587E+03  0.42922383587E+03  0.00000000000E+00 0. -1.
         21   -1    0    0  501  502 -0.00000000000E+00 -0.00000000000E+00 -0.11995859601E+03  0.11995859601E+03  0.00000000000E+00 0. -1.
      99926    2    1    2    0    0 -0.14210854715E-13 -0.71054273576E-14  0.30926523986E+03  0.54918243188E+03  0.45382414535E+03 0.  0.
      99925    2    3    3    0    0  0.96248231558E+02  0.35084259129E+02  0.25012706093E+03  0.37702128753E+03  0.26284382687E+03 0.  0.
         25    1    4    4    0    0  0.87212564814E+02  0.65223392097E+01  0.12115225841E+03  0.19486905908E+03  0.12509000000E+03 0.  0.
         25    1    4    4    0    0  0.90356667437E+01  0.28561919919E+02  0.12897480252E+03  0.18215222845E+03  0.12509000000E+03 0.  0.
         25    1    3    3    0    0 -0.96248231558E+02 -0.35084259129E+02  0.59138178931E+02  0.17216114435E+03  0.12509000000E+03 0.  0.
<mgrwt>
<rscale>  2 0.45382415E+03</rscale>
<asrwt>0</asrwt>
<pdfrwt beam="1">  1       21 0.63121152E-01 0.45382415E+03</pdfrwt>
<pdfrwt beam="2">  1       21 0.17640970E-01 0.45382415E+03</pdfrwt>
<totfact> 0.62500007E+04</totfact>
</mgrwt>
</event>
<event>
 7    0  0.4709932E-002  0.4524655E+03  0.7546771E-02  0.1026989E+00
         21   -1    0    0  502  501  0.00000000000E+00  0.00000000000E+00  0.20411298337E+03  0.20411298337E+03  0.00000000000E+00 0.  1.
         21   -1    0    0  501  502 -0.00000000000E+00 -0.00000000000E+00 -0.25074963782E+03  0.25074963782E+03  0.00000000000E+00 0.  1.
      99926    2    1    2    0    0  0.00000000000E+00  0.00000000000E+00 -0.46636654449E+02  0.45486262119E+03  0.45246549771E+03 0.  0.
      99925    2    3    3    0    0 -0.37439116672E+02  0.91029181980E+02  0.21612617963E+02  0.28167638988E+03  0.26303323732E+03 0.  0.
         25    1    3    3    0    0  0.37439116672E+02 -0.91029181980E+02 -0.68249272412E+02  0.17318623131E+03  0.12509000000E+03 0.  0.
         25    1    4    4    0    0 -0.52302994356E+02  0.57111424888E+02  0.32824655732E+02  0.15073912629E+03  0.12509000000E+03 0.  0.
         25    1    4    4    0    0  0.14863877683E+02  0.33917757091E+02 -0.11212037769E+02  0.13093726359E+03  0.12509000000E+03 0.  0.
<mgrwt>
<rscale>  2 0.45246550E+03</rscale>
<asrwt>0</asrwt>
<pdfrwt beam="1">  1       21 0.30016615E-01 0.45246550E+03</pdfrwt>
<pdfrwt beam="2">  1       21 0.36874946E-01 0.45246550E+03</pdfrwt>
<totfact> 0.69959871E+04</totfact>
</mgrwt>
</event>
<event>
 6    0  0.4709932E-002  0.4456134E+03  0.7546771E-02  0.1029038E+00
         21   -1    0    0  502  501  0.00000000000E+00  0.00000000000E+00  0.64479972330E+03  0.64479972330E+03  0.00000000000E+00 0. -1.
         21   -1    0    0  501  502 -0.00000000000E+00 -0.00000000000E+00 -0.76989515726E+02  0.76989515726E+02  0.00000000000E+00 0. -1.
      99926    2    1    2    0    0  0.00000000000E+00  0.00000000000E+00  0.56781020757E+03  0.72178923902E+03  0.44561336801E+03 0.  0.
         25    1    3    3    0    0 -0.48308906654E+02  0.79502422450E+02  0.17920591257E+03  0.23752189970E+03  0.12509000000E+03 0.  0.
         25    1    3    3    0    0 -0.25334300963E+02 -0.12241836819E+02  0.15547295717E+03  0.20152180499E+03  0.12509000000E+03 0.  0.
         25    1    3    3    0    0  0.73643207617E+02 -0.67260585631E+02  0.23313133783E+03  0.28274553434E+03  0.12509000000E+03 0.  0.
<mgrwt>
<rscale>  2 0.44561337E+03</rscale>
<asrwt>0</asrwt>
<pdfrwt beam="1">  1       21 0.94823486E-01 0.44561337E+03</pdfrwt>
<pdfrwt beam="2">  1       21 0.11321988E-01 0.44561337E+03</pdfrwt>
<totfact> 0.55738311E+04</totfact>
</mgrwt>
</event>
<event>
 7    0  0.4709932E-002  0.4443976E+03  0.7546771E-02  0.1029406E+00
         21   -1    0    0  502  501  0.00000000000E+00  0.00000000000E+00  0.47550346948E+03  0.47550346948E+03  0.00000000000E+00 0. -1.
         21   -1    0    0  501  502 -0.00000000000E+00 -0.00000000000E+00 -0.10383164901E+03  0.10383164901E+03  0.00000000000E+00 0. -1.
      99926    2    1    2    0    0  0.00000000000E+00  0.00000000000E+00  0.37167182048E+03  0.57933511849E+03  0.44439761181E+03 0.  0.
      99925    2    3    3    0    0  0.43458834987E+02  0.82562746646E+02  0.29294073915E+03  0.40454562012E+03  0.26294030622E+03 0.  0.
         25    1    4    4    0    0  0.87657711885E+01  0.64800760616E+02  0.19611490188E+03  0.24162893072E+03  0.12509000000E+03 0.  0.
         25    1    3    3    0    0 -0.43458834987E+02 -0.82562746646E+02  0.78731081327E+02  0.17478949837E+03  0.12509000000E+03 0.  0.
         25    1    4    4    0    0  0.34693063798E+02  0.17761986030E+02  0.96825837264E+02  0.16291668940E+03  0.12509000000E+03 0.  0.
<mgrwt>
<rscale>  2 0.44439761E+03</rscale>
<asrwt>0</asrwt>
<pdfrwt beam="1">  1       21 0.69926980E-01 0.44439761E+03</pdfrwt>
<pdfrwt beam="2">  1       21 0.15269360E-01 0.44439761E+03</pdfrwt>
<totfact> 0.65269777E+04</totfact>
</mgrwt>
</event>
<event>
 7    0  0.4709932E-002  0.4577284E+03  0.7546771E-02  0.1025442E+00
         21   -1    0    0  502  501  0.00000000000E+00  0.00000000000E+00  0.74836614478E+03  0.74836614478E+03  0.00000000000E+00 0. -1.
         21   -1    0    0  501  502 -0.00000000000E+00 -0.00000000000E+00 -0.69990906292E+02  0.69990906292E+02  0.00000000000E+00 0. -1.
      99926    2    1    2    0    0  0.00000000000E+00  0.00000000000E+00  0.67837523849E+03  0.81835705107E+03  0.45772841166E+03 0.  0.
      99925    2    3    3    0    0 -0.76878253866E+02 -0.48328287819E+02  0.29760413148E+03  0.40740689186E+03  0.26299480440E+03 0.  0.
         25    1    4    4    0    0 -0.58344894933E+02 -0.43026179309E+01  0.19387478610E+03  0.23802852785E+03  0.12509000000E+03 0.  0.
         25    1    4    4    0    0 -0.18533358933E+02 -0.44025669888E+02  0.10372934538E+03  0.16937836401E+03  0.12509000000E+03 0.  0.
         25    1    3    3    0    0  0.76878253866E+02  0.48328287819E+02  0.38077110701E+03  0.41095015921E+03  0.12509000000E+03 0.  0.
<mgrwt>
<rscale>  2 0.45772841E+03</rscale>
<asrwt>0</asrwt>
<pdfrwt beam="1">  1       21 0.11005384E+00 0.45772841E+03</pdfrwt>
<pdfrwt beam="2">  1       21 0.10292781E-01 0.45772841E+03</pdfrwt>
<totfact> 0.45899110E+04</totfact>
</mgrwt>
</event>
<event>
 7    0  0.4709932E-002  0.4597880E+03  0.7546771E-02  0.1024843E+00
         21   -1    0    0  502  501  0.00000000000E+00  0.00000000000E+00  0.11551133858E+03  0.11551133858E+03  0.00000000000E+00 0. -1.
         21   -1    0    0  501  502 -0.00000000000E+00 -0.00000000000E+00 -0.45754166113E+03  0.45754166113E+03  0.00000000000E+00 0. -1.
      99926    2    1    2    0    0  0.00000000000E+00  0.00000000000E+00 -0.34203032254E+03  0.57305299971E+03  0.45978799347E+03 0.  0.
      99925    2    3    3    0    0  0.10316556245E+03 -0.39795401147E+02 -0.26426746790E+03  0.38887543080E+03  0.26298288701E+03 0.  0.
         25    1    3    3    0    0 -0.10316556245E+03  0.39795401147E+02 -0.77762854639E+02  0.18417756891E+03  0.12509000000E+03 0.  0.
         25    1    4    4    0    0  0.10797035886E+02 -0.10539783201E+02 -0.10061231144E+03  0.16123897893E+03  0.12509000000E+03 0.  0.
         25    1    4    4    0    0  0.92368526563E+02 -0.29255617945E+02 -0.16365515647E+03  0.22763645187E+03  0.12509000000E+03 0.  0.
<mgrwt>
<rscale>  2 0.45978799E+03</rscale>
<asrwt>0</asrwt>
<pdfrwt beam="1">  1       21 0.16986961E-01 0.45978799E+03</pdfrwt>
<pdfrwt beam="2">  1       21 0.67285540E-01 0.45978799E+03</pdfrwt>
<totfact> 0.58135869E+04</totfact>
</mgrwt>
</event>
<event>
 7    0  0.4709932E-002  0.4543492E+03  0.7546771E-02  0.1026433E+00
         21   -1    0    0  502  501  0.00000000000E+00  0.00000000000E+00  0.15911160544E+04  0.15911160544E+04  0.00000000000E+00 0. -1.
         21   -1    0    0  501  502 -0.00000000000E+00 -0.00000000000E+00 -0.32435279714E+02  0.32435279714E+02  0.00000000000E+00 0. -1.
      99926    2    1    2    0    0  0.00000000000E+00  0.00000000000E+00  0.15586807747E+04  0.16235513341E+04  0.45434917974E+03 0.  0.
      99925    2    3    3    0    0 -0.35966578351E+02  0.10209641845E+03  0.88005950064E+03  0.92505894682E+03  0.26365139296E+03 0.  0.
         25    1    3    3    0    0  0.35966578351E+02 -0.10209641845E+03  0.67862127407E+03  0.69849238731E+03  0.12509000000E+03 0.  0.
         25    1    4    4    0    0  0.19549731936E+02  0.63837839782E+02  0.39872366877E+03  0.42318498786E+03  0.12509000000E+03 0.  0.
         25    1    4    4    0    0 -0.55516310287E+02  0.38258578664E+02  0.48133583186E+03  0.50187395896E+03  0.12509000000E+03 0.  0.
<mgrwt>
<rscale>  2 0.45434918E+03</rscale>
<asrwt>0</asrwt>
<pdfrwt beam="1">  1       21 0.23398760E+00 0.45434918E+03</pdfrwt>
<pdfrwt beam="2">  1       21 0.47698951E-02 0.45434918E+03</pdfrwt>
<totfact> 0.21008741E+04</totfact>
</mgrwt>
</event>
<event>
 7    0  0.4709932E-002  0.4550895E+03  0.7546771E-02  0.1026215E+00
         21   -1    0    0  502  501  0.00000000000E+00  0.00000000000E+00  0.11746213302E+04  0.11746213302E+04  0.00000000000E+00 0.  1.
         21   -1    0    0  501  502 -0.00000000000E+00 -0.00000000000E+00 -0.44079407808E+02  0.44079407808E+02  0.00000000000E+00 0.  1.
      99926    2    1    2    0    0  0.00000000000E+00  0.00000000000E+00  0.11305419224E+04  0.12187007380E+04  0.45508949727E+03 0.  0.
      99925    2    3    3    0    0 -0.19502277878E+02  0.84601662119E+02  0.90599371482E+03  0.94739429558E+03  0.26304668773E+03 0.  0.
         25    1    3    3    0    0  0.19502277878E+02 -0.84601662119E+02  0.22454820754E+03  0.27130644240E+03  0.12509000000E+03 0.  0.
         25    1    4    4    0    0 -0.94814600024E+01  0.38302967614E+02  0.31058956722E+03  0.33715041566E+03  0.12509000000E+03 0.  0.
         25    1    4    4    0    0 -0.10020817875E+02  0.46298694506E+02  0.59540414760E+03  0.61024387992E+03  0.12509000000E+03 0.  0.
<mgrwt>
<rscale>  2 0.45508950E+03</rscale>
<asrwt>0</asrwt>
<pdfrwt beam="1">  1       21 0.17273841E+00 0.45508950E+03</pdfrwt>
<pdfrwt beam="2">  1       21 0.64822666E-02 0.45508950E+03</pdfrwt>
<totfact> 0.31546790E+04</totfact>
</mgrwt>
</event>
<event>
 7    0  0.4709932E-002  0.4586854E+03  0.7546771E-02  0.1025163E+00
         21   -1    0    0  502  501  0.00000000000E+00  0.00000000000E+00  0.11586388634E+03  0.11586388634E+03  0.00000000000E+00 0. -1.
         21   -1    0    0  501  502 -0.00000000000E+00 -0.00000000000E+00 -0.45396440323E+03  0.45396440323E+03  0.00000000000E+00 0. -1.
      99926    2    1    2    0    0 -0.35527136788E-14  0.00000000000E+00 -0.33810051688E+03  0.56982828957E+03  0.45868542606E+03 0.  0.
      99925    2    3    3    0    0  0.22891531909E+02 -0.10560535365E+03 -0.26616125337E+03  0.38955272637E+03  0.26312164653E+03 0.  0.
         25    1    4    4    0    0 -0.29348096062E+02 -0.54560073652E+02 -0.13152159835E+03  0.19179038378E+03  0.12509000000E+03 0.  0.
         25    1    3    3    0    0 -0.22891531909E+02  0.10560535365E+03 -0.71939263512E+02  0.18027556320E+03  0.12509000000E+03 0.  0.
         25    1    4    4    0    0  0.52239627970E+02 -0.51045280001E+02 -0.13463965502E+03  0.19776234258E+03  0.12509000000E+03 0.  0.
<mgrwt>
<rscale>  2 0.45868543E+03</rscale>
<asrwt>0</asrwt>
<pdfrwt beam="1">  1       21 0.17038807E-01 0.45868543E+03</pdfrwt>
<pdfrwt beam="2">  1       21 0.66759471E-01 0.45868543E+03</pdfrwt>
<totfact> 0.58841227E+04</totfact>
</mgrwt>
</event>
<event>
 7    0  0.4709932E-002  0.4358787E+03  0.7546771E-02  0.1032019E+00
         21   -1    0    0  502  501  0.00000000000E+00  0.00000000000E+00  0.41881510925E+03  0.41881510925E+03  0.00000000000E+00 0. -1.
         21   -1    0    0  501  502 -0.00000000000E+00 -0.00000000000E+00 -0.11340935258E+03  0.11340935258E+03  0.00000000000E+00 0. -1.
      99926    2    1    2    0    0  0.55511151231E-16  0.00000000000E+00  0.30540575667E+03  0.53222446182E+03  0.43587865462E+03 0.  0.
      99925    2    3    3    0    0 -0.96131161692E-01 -0.90283719953E+02  0.16322998696E+03  0.32243261993E+03  0.26299735061E+03 0.  0.
         25    1    4    4    0    0  0.15781874607E+02 -0.74902414190E+02  0.11572037507E+03  0.18681047220E+03  0.12509000000E+03 0.  0.
         25    1    3    3    0    0  0.96131161692E-01  0.90283719953E+02  0.14217576971E+03  0.20979184189E+03  0.12509000000E+03 0.  0.
         25    1    4    4    0    0 -0.15878005769E+02 -0.15381305762E+02  0.47509611885E+02  0.13562214773E+03  0.12509000000E+03 0.  0.
<mgrwt>
<rscale>  2 0.43587865E+03</rscale>
<asrwt>0</asrwt>
<pdfrwt beam="1">  1       21 0.61590457E-01 0.43587865E+03</pdfrwt>
<pdfrwt beam="2">  1       21 0.16677846E-01 0.43587865E+03</pdfrwt>
<totfact> 0.73576103E+04</totfact>
</mgrwt>
</event>
<event>
 7    0  0.4709932E-002  0.4497755E+03  0.7546771E-02  0.1027789E+00
         21   -1    0    0  502  501  0.00000000000E+00  0.00000000000E+00  0.61724325451E+03  0.61724325451E+03  0.00000000000E+00 0.  1.
         21   -1    0    0  501  502 -0.00000000000E+00 -0.00000000000E+00 -0.81936087722E+02  0.81936087722E+02  0.00000000000E+00 0.  1.
      99926    2    1    2    0    0  0.71054273576E-14  0.14210854715E-13  0.53530716678E+03  0.69917934223E+03  0.44977548820E+03 0.  0.
      99925    2    3    3    0    0 -0.61285498991E+02 -0.81223721599E+02  0.39568448856E+03  0.48588329043E+03  0.26298888208E+03 0.  0.
         25    1    4    4    0    0 -0.30415275948E+02 -0.55527061097E+02  0.26916008521E+03  0.30348476584E+03  0.12509000000E+03 0.  0.
         25    1    4    4    0    0 -0.30870223043E+02 -0.25696660502E+02  0.12652440335E+03  0.18239852459E+03  0.12509000000E+03 0.  0.
         25    1    3    3    0    0  0.61285498991E+02  0.81223721599E+02  0.13962267823E+03  0.21329605180E+03  0.12509000000E+03 0.  0.
<mgrwt>
<rscale>  2 0.44977549E+03</rscale>
<asrwt>0</asrwt>
<pdfrwt beam="1">  1       21 0.90771065E-01 0.44977549E+03</pdfrwt>
<pdfrwt beam="2">  1       21 0.12049425E-01 0.44977549E+03</pdfrwt>
<totfact> 0.55181639E+04</totfact>
</mgrwt>
</event>
<event>
 7    0  0.4709932E-002  0.4498636E+03  0.7546771E-02  0.1027763E+00
         21   -1    0    0  502  501  0.00000000000E+00  0.00000000000E+00  0.14202815074E+03  0.14202815074E+03  0.00000000000E+00 0. -1.
         21   -1    0    0  501  502 -0.00000000000E+00 -0.00000000000E+00 -0.35622735671E+03  0.35622735671E+03  0.00000000000E+00 0. -1.
      99926    2    1    2    0    0  0.00000000000E+00  0.35527136788E-14 -0.21419920598E+03  0.49825550745E+03  0.44986359139E+03 0.  0.
      99925    2    3    3    0    0  0.72045694787E+02  0.30557632139E+02 -0.52726028199E+02  0.27951948787E+03  0.26310978513E+03 0.  0.
         25    1    4    4    0    0  0.27139913005E+02  0.42293388128E+02 -0.56197039414E+02  0.14605109002E+03  0.12509000000E+03 0.  0.
         25    1    3    3    0    0 -0.72045694787E+02 -0.30557632139E+02 -0.16147317778E+03  0.21873601958E+03  0.12509000000E+03 0.  0.
         25    1    4    4    0    0  0.44905781782E+02 -0.11735755989E+02  0.34710112149E+01  0.13346839785E+03  0.12509000000E+03 0.  0.
<mgrwt>
<rscale>  2 0.44986359E+03</rscale>
<asrwt>0</asrwt>
<pdfrwt beam="1">  1       21 0.20886493E-01 0.44986359E+03</pdfrwt>
<pdfrwt beam="2">  1       21 0.52386376E-01 0.44986359E+03</pdfrwt>
<totfact> 0.68129078E+04</totfact>
</mgrwt>
</event>
<event>
 7    0  0.4709932E-002  0.4533861E+03  0.7546771E-02  0.1026717E+00
         21   -1    0    0  502  501  0.00000000000E+00  0.00000000000E+00  0.22926412524E+03  0.22926412524E+03  0.00000000000E+00 0. -1.
         21   -1    0    0  501  502 -0.00000000000E+00 -0.00000000000E+00 -0.22415080041E+03  0.22415080041E+03  0.00000000000E+00 0. -1.
      99926    2    1    2    0    0  0.00000000000E+00 -0.71054273576E-14  0.51133248346E+01  0.45341492565E+03  0.45338609232E+03 0.  0.
      99925    2    3    3    0    0 -0.79083154177E+02  0.46794139534E+02  0.66548571501E+02  0.28648489719E+03  0.26306091914E+03 0.  0.
         25    1    4    4    0    0 -0.56087677153E+02  0.27681185072E+02  0.72898202641E+02  0.15771408175E+03  0.12509000000E+03 0.  0.
         25    1    3    3    0    0  0.79083154177E+02 -0.46794139534E+02 -0.61435246666E+02  0.16693002846E+03  0.12509000000E+03 0.  0.
         25    1    4    4    0    0 -0.22995477024E+02  0.19112954462E+02 -0.63496311396E+01  0.12877081543E+03  0.12509000000E+03 0.  0.
<mgrwt>
<rscale>  2 0.45338609E+03</rscale>
<asrwt>0</asrwt>
<pdfrwt beam="1">  1       21 0.33715313E-01 0.45338609E+03</pdfrwt>
<pdfrwt beam="2">  1       21 0.32963353E-01 0.45338609E+03</pdfrwt>
<totfact> 0.69553423E+04</totfact>
</mgrwt>
</event>
<event>
 7    0  0.4709932E-002  0.4530909E+03  0.7546771E-02  0.1026804E+00
         21   -1    0    0  502  501  0.00000000000E+00  0.00000000000E+00  0.95829354358E+03  0.95829354358E+03  0.00000000000E+00 0.  1.
         21   -1    0    0  501  502 -0.00000000000E+00 -0.00000000000E+00 -0.53556490122E+02  0.53556490122E+02  0.00000000000E+00 0.  1.
      99926    2    1    2    0    0  0.00000000000E+00  0.14210854715E-13  0.90473705346E+03  0.10118500337E+04  0.45309089022E+03 0.  0.
      99925    2    3    3    0    0 -0.42087233410E+02 -0.96141758615E+02  0.65348743651E+03  0.71220282267E+03  0.26300657400E+03 0.  0.
         25    1    3    3    0    0  0.42087233410E+02  0.96141758615E+02  0.25124961695E+03  0.29964721104E+03  0.12509000000E+03 0.  0.
         25    1    4    4    0    0 -0.15187101053E+01 -0.31944799593E+02  0.22496837254E+03  0.25938591605E+03  0.12509000000E+03 0.  0.
         25    1    4    4    0    0 -0.40568523305E+02 -0.64196959022E+02  0.42851906397E+03  0.45281690662E+03  0.12509000000E+03 0.  0.
<mgrwt>
<rscale>  2 0.45309089E+03</rscale>
<asrwt>0</asrwt>
<pdfrwt beam="1">  1       21 0.14092551E+00 0.45309089E+03</pdfrwt>
<pdfrwt beam="2">  1       21 0.78759550E-02 0.45309089E+03</pdfrwt>
<totfact> 0.39291483E+04</totfact>
</mgrwt>
</event>
<event>
 7    0  0.4709932E-002  0.4524474E+03  0.7546771E-02  0.1026995E+00
         21   -1    0    0  502  501  0.00000000000E+00  0.00000000000E+00  0.30911623211E+02  0.30911623211E+02  0.00000000000E+00 0.  1.
         21   -1    0    0  501  502 -0.00000000000E+00 -0.00000000000E+00 -0.16555960269E+04  0.16555960269E+04  0.00000000000E+00 0.  1.
      99926    2    1    2    0    0  0.00000000000E+00  0.00000000000E+00 -0.16246844037E+04  0.16865076501E+04  0.45244739174E+03 0.  0.
      99925    2    3    3    0    0 -0.78564594655E+02 -0.74903622091E+01 -0.73430559457E+03  0.78392777393E+03  0.26288694806E+03 0.  0.
         25    1    4    4    0    0  0.94787155042E+00  0.64371377728E+01 -0.35514344561E+03  0.37658559487E+03  0.12509000000E+03 0.  0.
         25    1    3    3    0    0  0.78564594655E+02  0.74903622091E+01 -0.89037880910E+03  0.90257987616E+03  0.12509000000E+03 0.  0.
         25    1    4    4    0    0 -0.79512466206E+02 -0.13927499982E+02 -0.37916214896E+03  0.40734217906E+03  0.12509000000E+03 0.  0.
<mgrwt>
<rscale>  2 0.45244739E+03</rscale>
<asrwt>0</asrwt>
<pdfrwt beam="1">  1       21 0.45458264E-02 0.45244739E+03</pdfrwt>
<pdfrwt beam="2">  1       21 0.24347003E+00 0.45244739E+03</pdfrwt>
<totfact> 0.19935951E+04</totfact>
</mgrwt>
</event>
<event>
 7    0  0.4709932E-002  0.4538653E+03  0.7546771E-02  0.1026576E+00
         21   -1    0    0  502  501  0.00000000000E+00  0.00000000000E+00  0.32060717046E+02  0.32060717046E+02  0.00000000000E+00 0. -1.
         21   -1    0    0  501  502 -0.00000000000E+00 -0.00000000000E+00 -0.16062783898E+04  0.16062783898E+04  0.00000000000E+00 0. -1.
      99926    2    1    2    0    0  0.00000000000E+00  0.00000000000E+00 -0.15742176728E+04  0.16383391069E+04  0.45386534106E+03 0.  0.
      99925    2    3    3    0    0  0.21743477619E+02 -0.22047335047E+02 -0.60266101645E+03  0.65827344154E+03  0.26299193769E+03 0.  0.
         25    1    4    4    0    0  0.45154504573E+02  0.82161562556E+01 -0.27927336240E+03  0.30943101583E+03  0.12509000000E+03 0.  0.
         25    1    4    4    0    0 -0.23411026955E+02 -0.30263491303E+02 -0.32338765404E+03  0.34884242571E+03  0.12509000000E+03 0.  0.
         25    1    3    3    0    0 -0.21743477619E+02  0.22047335047E+02 -0.97155665634E+03  0.98006566534E+03  0.12509000000E+03 0.  0.
<mgrwt>
<rscale>  2 0.45386534E+03</rscale>
<asrwt>0</asrwt>
<pdfrwt beam="1">  1       21 0.47148105E-02 0.45386534E+03</pdfrwt>
<pdfrwt beam="2">  1       21 0.23621745E+00 0.45386534E+03</pdfrwt>
<totfact> 0.20759388E+04</totfact>
</mgrwt>
</event>
<event>
 7    0  0.4709932E-002  0.4642086E+03  0.7546771E-02  0.1023568E+00
         21   -1    0    0  502  501  0.00000000000E+00  0.00000000000E+00  0.34103046959E+03  0.34103046959E+03  0.00000000000E+00 0.  1.
         21   -1    0    0  501  502 -0.00000000000E+00 -0.00000000000E+00 -0.15796946123E+03  0.15796946123E+03  0.00000000000E+00 0.  1.
      99926    2    1    2    0    0  0.00000000000E+00  0.00000000000E+00  0.18306100836E+03  0.49899993082E+03  0.46420857185E+03 0.  0.
      99925    2    3    3    0    0 -0.90961305923E+02  0.19616340101E+02  0.30190709413E+02  0.28065250956E+03  0.26305055068E+03 0.  0.
         25    1    4    4    0    0 -0.44218948234E+02  0.17883672589E+02 -0.24927207877E+02  0.13617641103E+03  0.12509000000E+03 0.  0.
         25    1    4    4    0    0 -0.46742357688E+02  0.17326675113E+01  0.55117917289E+02  0.14447609853E+03  0.12509000000E+03 0.  0.
         25    1    3    3    0    0  0.90961305923E+02 -0.19616340101E+02  0.15287029895E+03  0.21834742127E+03  0.12509000000E+03 0.  0.
<mgrwt>
<rscale>  2 0.46420857E+03</rscale>
<asrwt>0</asrwt>
<pdfrwt beam="1">  1       21 0.50151540E-01 0.46420857E+03</pdfrwt>
<pdfrwt beam="2">  1       21 0.23230803E-01 0.46420857E+03</pdfrwt>
<totfact> 0.60775150E+04</totfact>
</mgrwt>
</event>
<event>
 7    0  0.4709932E-002  0.4639688E+03  0.7546771E-02  0.1023636E+00
         21   -1    0    0  502  501  0.00000000000E+00  0.00000000000E+00  0.25799485347E+03  0.25799485347E+03  0.00000000000E+00 0. -1.
         21   -1    0    0  501  502 -0.00000000000E+00 -0.00000000000E+00 -0.20859628453E+03  0.20859628453E+03  0.00000000000E+00 0. -1.
      99926    2    1    2    0    0  0.00000000000E+00 -0.14210854715E-13  0.49398568944E+02  0.46659113800E+03  0.46396882595E+03 0.  0.
      99925    2    3    3    0    0  0.93692475781E+02  0.77054089603E+02  0.32367771154E+02  0.29151067388E+03  0.26308779454E+03 0.  0.
         25    1    4    4    0    0  0.80758999407E+02  0.54908800913E+02  0.39772828011E+02  0.16360433476E+03  0.12509000000E+03 0.  0.
         25    1    3    3    0    0 -0.93692475781E+02 -0.77054089603E+02  0.17030797790E+02  0.17508046412E+03  0.12509000000E+03 0.  0.
         25    1    4    4    0    0  0.12933476375E+02  0.22145288690E+02 -0.74050568571E+01  0.12790633913E+03  0.12509000000E+03 0.  0.
<mgrwt>
<rscale>  2 0.46396883E+03</rscale>
<asrwt>0</asrwt>
<pdfrwt beam="1">  1       21 0.37940420E-01 0.46396883E+03</pdfrwt>
<pdfrwt beam="2">  1       21 0.30675924E-01 0.46396883E+03</pdfrwt>
<totfact> 0.63069408E+04</totfact>
</mgrwt>
</event>
<event>
 7    0  0.4709932E-002  0.4331855E+03  0.7546771E-02  0.1032858E+00
         21   -1    0    0  502  501  0.00000000000E+00  0.00000000000E+00  0.26416548049E+03  0.26416548049E+03  0.00000000000E+00 0.  1.
         21   -1    0    0  501  502 -0.00000000000E+00 -0.00000000000E+00 -0.17758721071E+03  0.17758721071E+03  0.00000000000E+00 0.  1.
      99926    2    1    2    0    0  0.71054273576E-14 -0.35527136788E-14  0.86578269779E+02  0.44175269119E+03  0.43318546072E+03 0.  0.
      99925    2    3    3    0    0  0.44021819444E+02 -0.29712018367E+02 -0.19863535290E+02  0.26913145673E+03  0.26309020571E+03 0.  0.
         25    1    3    3    0    0 -0.44021819444E+02  0.29712018367E+02  0.10644180507E+03  0.17262123447E+03  0.12509000000E+03 0.  0.
         25    1    4    4    0    0 -0.31461564704E+01 -0.15814429038E+02  0.22686970650E+02  0.12814913657E+03  0.12509000000E+03 0.  0.
         25    1    4    4    0    0  0.47167975915E+02 -0.13897589329E+02 -0.42550505940E+02  0.14098232016E+03  0.12509000000E+03 0.  0.
<mgrwt>
<rscale>  2 0.43318546E+03</rscale>
<asrwt>0</asrwt>
<pdfrwt beam="1">  1       21 0.38847865E-01 0.43318546E+03</pdfrwt>
<pdfrwt beam="2">  1       21 0.26115766E-01 0.43318546E+03</pdfrwt>
<totfact> 0.83061095E+04</totfact>
</mgrwt>
</event>
<event>
 7    0  0.4709932E-002  0.4491351E+03  0.7546771E-02  0.1027980E+00
         21   -1    0    0  502  501  0.00000000000E+00  0.00000000000E+00  0.48393206087E+03  0.48393206087E+03  0.00000000000E+00 0. -1.
         21   -1    0    0  501  502 -0.00000000000E+00 -0.00000000000E+00 -0.10421006963E+03  0.10421006963E+03  0.00000000000E+00 0. -1.
      99926    2    1    2    0    0  0.00000000000E+00 -0.88817841970E-15  0.37972199123E+03  0.58814213050E+03  0.44913514118E+03 0.  0.
      99925    2    3    3    0    0  0.17960099111E+02  0.73555979798E+01  0.10191919119E+03  0.28285771591E+03  0.26314310923E+03 0.  0.
         25    1    4    4    0    0  0.16104449611E+02 -0.12147271849E+01  0.83616529624E+01  0.12640511936E+03  0.12509000000E+03 0.  0.
         25    1    4    4    0    0  0.18556495006E+01  0.85703251647E+01  0.93557538231E+02  0.15645259655E+03  0.12509000000E+03 0.  0.
         25    1    3    3    0    0 -0.17960099111E+02 -0.73555979798E+01  0.27780280004E+03  0.30528441459E+03  0.12509000000E+03 0.  0.
<mgrwt>
<rscale>  2 0.44913514E+03</rscale>
<asrwt>0</asrwt>
<pdfrwt beam="1">  1       21 0.71166479E-01 0.44913514E+03</pdfrwt>
<pdfrwt beam="2">  1       21 0.15325010E-01 0.44913514E+03</pdfrwt>
<totfact> 0.62249912E+04</totfact>
</mgrwt>
</event>
<event>
 7    0  0.4709932E-002  0.4567283E+03  0.7546771E-02  0.1025734E+00
         21   -1    0    0  502  501  0.00000000000E+00  0.00000000000E+00  0.47706375698E+03  0.47706375698E+03  0.00000000000E+00 0.  1.
         21   -1    0    0  501  502 -0.00000000000E+00 -0.00000000000E+00 -0.10931491568E+03  0.10931491568E+03  0.00000000000E+00 0.  1.
      99926    2    1    2    0    0  0.00000000000E+00  0.00000000000E+00  0.36774884129E+03  0.58637867266E+03  0.45672829721E+03 0.  0.
      99925    2    3    3    0    0  0.10154903493E+03 -0.51039234266E+02  0.25846050415E+03  0.38511104321E+03  0.26189973933E+03 0.  0.
         25    1    4    4    0    0  0.66450647049E+02  0.37788223911E+01  0.15639071803E+03  0.21103443505E+03  0.12509000000E+03 0.  0.
         25    1    4    4    0    0  0.35098387884E+02 -0.54818056657E+02  0.10206978613E+03  0.17407660816E+03  0.12509000000E+03 0.  0.
         25    1    3    3    0    0 -0.10154903493E+03  0.51039234266E+02  0.10928833714E+03  0.20126762945E+03  0.12509000000E+03 0.  0.
<mgrwt>
<rscale>  2 0.45672830E+03</rscale>
<asrwt>0</asrwt>
<pdfrwt beam="1">  1       21 0.70156434E-01 0.45672830E+03</pdfrwt>
<pdfrwt beam="2">  1       21 0.16075723E-01 0.45672830E+03</pdfrwt>
<totfact> 0.58718348E+04</totfact>
</mgrwt>
</event>
<event>
 7    0  0.4709932E-002  0.4548132E+03  0.7546771E-02  0.1026296E+00
         21   -1    0    0  502  501  0.00000000000E+00  0.00000000000E+00  0.48368530322E+02  0.48368530322E+02  0.00000000000E+00 0.  1.
         21   -1    0    0  501  502 -0.00000000000E+00 -0.00000000000E+00 -0.10691613996E+04  0.10691613996E+04  0.00000000000E+00 0.  1.
      99926    2    1    2    0    0  0.00000000000E+00 -0.35527136788E-14 -0.10207928693E+04  0.11175299299E+04  0.45481321694E+03 0.  0.
      99925    2    3    3    0    0  0.71129810186E+02  0.22764625718E+02 -0.85078772074E+03  0.89363947297E+03  0.26300966487E+03 0.  0.
         25    1    4    4    0    0  0.37096542096E+02 -0.35140999375E+01 -0.29949963084E+03  0.32670481984E+03  0.12509000000E+03 0.  0.
         25    1    3    3    0    0 -0.71129810186E+02 -0.22764625718E+02 -0.17000514853E+03  0.22389045694E+03  0.12509000000E+03 0.  0.
         25    1    4    4    0    0  0.34033268089E+02  0.26278725655E+02 -0.55128808990E+03  0.56693465314E+03  0.12509000000E+03 0.  0.
<mgrwt>
<rscale>  2 0.45481322E+03</rscale>
<asrwt>0</asrwt>
<pdfrwt beam="1">  1       21 0.71130192E-02 0.45481322E+03</pdfrwt>
<pdfrwt beam="2">  1       21 0.15722962E+00 0.45481322E+03</pdfrwt>
<totfact> 0.34935968E+04</totfact>
</mgrwt>
</event>
<event>
 7    0  0.4709932E-002  0.4540802E+03  0.7546771E-02  0.1026512E+00
         21   -1    0    0  502  501  0.00000000000E+00  0.00000000000E+00  0.44987487289E+02  0.44987487289E+02  0.00000000000E+00 0.  1.
         21   -1    0    0  501  502 -0.00000000000E+00 -0.00000000000E+00 -0.11458120177E+04  0.11458120177E+04  0.00000000000E+00 0.  1.
      99926    2    1    2    0    0  0.00000000000E+00  0.00000000000E+00 -0.11008245304E+04  0.11907995049E+04  0.45408018490E+03 0.  0.
      99925    2    3    3    0    0  0.74076549280E+02  0.56604656847E+02 -0.52911246645E+03  0.59818359691E+03  0.26300606671E+03 0.  0.
         25    1    4    4    0    0  0.48389806378E+02  0.53158300321E+02 -0.21328076908E+03  0.25749480153E+03  0.12509000000E+03 0.  0.
         25    1    4    4    0    0  0.25686742902E+02  0.34463565264E+01 -0.31583169737E+03  0.34068879538E+03  0.12509000000E+03 0.  0.
         25    1    3    3    0    0 -0.74076549280E+02 -0.56604656847E+02 -0.57171206391E+03  0.59261590803E+03  0.12509000000E+03 0.  0.
<mgrwt>
<rscale>  2 0.45408018E+03</rscale>
<asrwt>0</asrwt>
<pdfrwt beam="1">  1       21 0.66158073E-02 0.45408018E+03</pdfrwt>
<pdfrwt beam="2">  1       21 0.16850176E+00 0.45408018E+03</pdfrwt>
<totfact> 0.32682488E+04</totfact>
</mgrwt>
</event>
<event>
 7    0  0.4709932E-002  0.4577159E+03  0.7546771E-02  0.1025446E+00
         21   -1    0    0  502  501  0.00000000000E+00  0.00000000000E+00  0.21428370689E+03  0.21428370689E+03  0.00000000000E+00 0. -1.
         21   -1    0    0  501  502 -0.00000000000E+00 -0.00000000000E+00 -0.24442347048E+03  0.24442347048E+03  0.00000000000E+00 0. -1.
      99926    2    1    2    0    0  0.00000000000E+00  0.35527136788E-14 -0.30139763592E+02  0.45870717737E+03  0.45771592634E+03 0.  0.
      99925    2    3    3    0    0  0.11104681924E+03 -0.23419019236E+02 -0.34884540404E+02  0.28974011688E+03  0.26429634436E+03 0.  0.
         25    1    4    4    0    0  0.80861017495E+02 -0.22176751716E+02  0.15829210660E+02  0.15142121541E+03  0.12509000000E+03 0.  0.
         25    1    3    3    0    0 -0.11104681924E+03  0.23419019236E+02  0.47447768114E+01  0.16896706049E+03  0.12509000000E+03 0.  0.
         25    1    4    4    0    0  0.30185801741E+02 -0.12422675196E+01 -0.50713751064E+02  0.13831890146E+03  0.12509000000E+03 0.  0.
<mgrwt>
<rscale>  2 0.45771593E+03</rscale>
<asrwt>0</asrwt>
<pdfrwt beam="1">  1       21 0.31512310E-01 0.45771593E+03</pdfrwt>
<pdfrwt beam="2">  1       21 0.35944628E-01 0.45771593E+03</pdfrwt>
<totfact> 0.66815435E+04</totfact>
</mgrwt>
</event>
<event>
 6    0  0.4709932E-002  0.4553387E+03  0.7546771E-02  0.1026142E+00
         21   -1    0    0  502  501  0.00000000000E+00  0.00000000000E+00  0.47661590054E+03  0.47661590054E+03  0.00000000000E+00 0. -1.
         21   -1    0    0  501  502 -0.00000000000E+00 -0.00000000000E+00 -0.10875281842E+03  0.10875281842E+03  0.00000000000E+00 0. -1.
      99926    2    1    2    0    0  0.71054273576E-14  0.00000000000E+00  0.36786308212E+03  0.58536871895E+03  0.45533865412E+03 0.  0.
         25    1    3    3    0    0  0.20197372213E+02  0.55364838307E+02  0.87316693791E+02  0.16353871798E+03  0.12509000000E+03 0.  0.
         25    1    3    3    0    0 -0.52735421786E+02 -0.23830270189E+02  0.34441924837E+02  0.14206569176E+03  0.12509000000E+03 0.  0.
         25    1    3    3    0    0  0.32538049573E+02 -0.31534568118E+02  0.24610446349E+03  0.27976430921E+03  0.12509000000E+03 0.  0.
<mgrwt>
<rscale>  2 0.45533865E+03</rscale>
<asrwt>0</asrwt>
<pdfrwt beam="1">  1       21 0.70090573E-01 0.45533865E+03</pdfrwt>
<pdfrwt beam="2">  1       21 0.15993062E-01 0.45533865E+03</pdfrwt>
<totfact> 0.59428775E+04</totfact>
</mgrwt>
</event>
<event>
 7    0  0.4709932E-002  0.4642640E+03  0.7546771E-02  0.1023552E+00
         21   -1    0    0  502  501  0.00000000000E+00  0.00000000000E+00  0.11803782678E+04  0.11803782678E+04  0.00000000000E+00 0. -1.
         21   -1    0    0  501  502 -0.00000000000E+00 -0.00000000000E+00 -0.45650843597E+02  0.45650843597E+02  0.00000000000E+00 0. -1.
      99926    2    1    2    0    0  0.14210854715E-13  0.00000000000E+00  0.11347274242E+04  0.12260291114E+04  0.46426399252E+03 0.  0.
      99925    2    3    3    0    0  0.67294698789E+02  0.99978854728E+02  0.66942952303E+03  0.72936625511E+03  0.26327723014E+03 0.  0.
         25    1    3    3    0    0 -0.67294698789E+02 -0.99978854728E+02  0.46529790117E+03  0.49666285629E+03  0.12509000000E+03 0.  0.
         25    1    4    4    0    0  0.31881559940E+02  0.77416479025E+01  0.27265713876E+03  0.30177108939E+03  0.12509000000E+03 0.  0.
         25    1    4    4    0    0  0.35413138848E+02  0.92237206825E+02  0.39677238427E+03  0.42759516572E+03  0.12509000000E+03 0.  0.
<mgrwt>
<rscale>  2 0.46426399E+03</rscale>
<asrwt>0</asrwt>
<pdfrwt beam="1">  1       21 0.17358502E+00 0.46426399E+03</pdfrwt>
<pdfrwt beam="2">  1       21 0.67133601E-02 0.46426399E+03</pdfrwt>
<totfact> 0.29178683E+04</totfact>
</mgrwt>
</event>
<event>
 7    0  0.4709932E-002  0.4631333E+03  0.7546771E-02  0.1023876E+00
         21   -1    0    0  502  501  0.00000000000E+00  0.00000000000E+00  0.19660528483E+04  0.19660528483E+04  0.00000000000E+00 0.  1.
         21   -1    0    0  501  502 -0.00000000000E+00 -0.00000000000E+00 -0.27274502923E+02  0.27274502923E+02  0.00000000000E+00 0.  1.
      99926    2    1    2    0    0  0.00000000000E+00 -0.35527136788E-14  0.19387783454E+04  0.19933273512E+04  0.46313330331E+03 0.  0.
      99925    2    3    3    0    0  0.11335926585E+03 -0.19306856350E+02  0.10540765126E+04  0.10924567063E+04  0.26298532826E+03 0.  0.
         25    1    3    3    0    0 -0.11335926585E+03  0.19306856350E+02  0.88470183283E+03  0.90087064497E+03  0.12509000000E+03 0.  0.
         25    1    4    4    0    0  0.44996979976E+02  0.29825472813E+02  0.49741631604E+03  0.51573712936E+03  0.12509000000E+03 0.  0.
         25    1    4    4    0    0  0.68362285876E+02 -0.49132329163E+02  0.55666019653E+03  0.57671957691E+03  0.12509000000E+03 0.  0.
<mgrwt>
<rscale>  2 0.46313330E+03</rscale>
<asrwt>0</asrwt>
<pdfrwt beam="1">  1       21 0.28912532E+00 0.46313330E+03</pdfrwt>
<pdfrwt beam="2">  1       21 0.40109576E-02 0.46313330E+03</pdfrwt>
<totfact> 0.12980014E+04</totfact>
</mgrwt>
</event>
<event>
 7    0  0.4709932E-002  0.4466404E+03  0.7546771E-02  0.1028729E+00
         21   -1    0    0  502  501  0.00000000000E+00  0.00000000000E+00  0.33238111206E+02  0.33238111206E+02  0.00000000000E+00 0.  1.
         21   -1    0    0  501  502 -0.00000000000E+00 -0.00000000000E+00 -0.15004435802E+04  0.15004435802E+04  0.00000000000E+00 0.  1.
      99926    2    1    2    0    0  0.00000000000E+00  0.00000000000E+00 -0.14672054690E+04  0.15336816914E+04  0.44664039484E+03 0.  0.
      99925    2    3    3    0    0 -0.86889420965E+02 -0.52460484865E+02 -0.83743556016E+03  0.88363590831E+03  0.26308216793E+03 0.  0.
         25    1    4    4    0    0 -0.29238761106E+02 -0.57275299313E+02 -0.49237116303E+03  0.51206663174E+03  0.12509000000E+03 0.  0.
         25    1    3    3    0    0  0.86889420965E+02  0.52460484865E+02 -0.62976990879E+03  0.65004578306E+03  0.12509000000E+03 0.  0.
         25    1    4    4    0    0 -0.57650659859E+02  0.48148144488E+01 -0.34506439714E+03  0.37156927657E+03  0.12509000000E+03 0.  0.
<mgrwt>
<rscale>  2 0.44664039E+03</rscale>
<asrwt>0</asrwt>
<pdfrwt beam="1">  1       21 0.48879586E-02 0.44664039E+03</pdfrwt>
<pdfrwt beam="2">  1       21 0.22065342E+00 0.44664039E+03</pdfrwt>
<totfact> 0.24519350E+04</totfact>
</mgrwt>
</event>
<event>
 7    0  0.4709932E-002  0.4555804E+03  0.7546771E-02  0.1026071E+00
         21   -1    0    0  502  501  0.00000000000E+00  0.00000000000E+00  0.71221825484E+02  0.71221825484E+02  0.00000000000E+00 0. -1.
         21   -1    0    0  501  502 -0.00000000000E+00 -0.00000000000E+00 -0.72854609805E+03  0.72854609805E+03  0.00000000000E+00 0. -1.
      99926    2    1    2    0    0 -0.35527136788E-14  0.00000000000E+00 -0.65732427256E+03  0.79976792353E+03  0.45558043440E+03 0.  0.
      99925    2    3    3    0    0 -0.31864791348E+02 -0.82365954732E+02 -0.53914854578E+03  0.60634474517E+03  0.26300813705E+03 0.  0.
         25    1    4    4    0    0 -0.53496503576E+02 -0.41882175789E+02 -0.24348202529E+03  0.28204077238E+03  0.12509000000E+03 0.  0.
         25    1    4    4    0    0  0.21631712228E+02 -0.40483778944E+02 -0.29566652048E+03  0.32430397279E+03  0.12509000000E+03 0.  0.
         25    1    3    3    0    0  0.31864791348E+02  0.82365954732E+02 -0.11817572679E+03  0.19342317836E+03  0.12509000000E+03 0.  0.
<mgrwt>
<rscale>  2 0.45558043E+03</rscale>
<asrwt>0</asrwt>
<pdfrwt beam="1">  1       21 0.10473798E-01 0.45558043E+03</pdfrwt>
<pdfrwt beam="2">  1       21 0.10713913E+00 0.45558043E+03</pdfrwt>
<totfact> 0.47559026E+04</totfact>
</mgrwt>
</event>
<event>
 7    0  0.4709932E-002  0.4560729E+03  0.7546771E-02  0.1025926E+00
         21   -1    0    0  502  501  0.00000000000E+00  0.00000000000E+00  0.32179171013E+03  0.32179171013E+03  0.00000000000E+00 0.  1.
         21   -1    0    0  501  502 -0.00000000000E+00 -0.00000000000E+00 -0.16159716850E+03  0.16159716850E+03  0.00000000000E+00 0.  1.
      99926    2    1    2    0    0  0.00000000000E+00  0.00000000000E+00  0.16019454163E+03  0.48338887863E+03  0.45607292927E+03 0.  0.
      99925    2    3    3    0    0 -0.10661305253E+03  0.18511789926E+02  0.13961340051E+03  0.31671518303E+03  0.26288319882E+03 0.  0.
         25    1    4    4    0    0 -0.84402564461E+02 -0.15765430424E+02  0.61693400457E+02  0.16378621872E+03  0.12509000000E+03 0.  0.
         25    1    3    3    0    0  0.10661305253E+03 -0.18511789926E+02  0.20581141122E+02  0.16667369560E+03  0.12509000000E+03 0.  0.
         25    1    4    4    0    0 -0.22210488069E+02  0.34277220350E+02  0.77920000052E+02  0.15292896430E+03  0.12509000000E+03 0.  0.
<mgrwt>
<rscale>  2 0.45607293E+03</rscale>
<asrwt>0</asrwt>
<pdfrwt beam="1">  1       21 0.47322310E-01 0.45607293E+03</pdfrwt>
<pdfrwt beam="2">  1       21 0.23764289E-01 0.45607293E+03</pdfrwt>
<totfact> 0.65891250E+04</totfact>
</mgrwt>
</event>
<event>
 7    0  0.4709932E-002  0.4584163E+03  0.7546771E-02  0.1025242E+00
         21   -1    0    0  502  501  0.00000000000E+00  0.00000000000E+00  0.59964915960E+03  0.59964915960E+03  0.00000000000E+00 0.  1.
         21   -1    0    0  501  502 -0.00000000000E+00 -0.00000000000E+00 -0.87611871256E+02  0.87611871256E+02  0.00000000000E+00 0.  1.
      99926    2    1    2    0    0  0.00000000000E+00  0.00000000000E+00  0.51203728834E+03  0.68726103085E+03  0.45841633902E+03 0.  0.
      99925    2    3    3    0    0  0.68382058615E+02  0.37236996631E+02  0.45091195876E+03  0.52774139609E+03  0.26291954423E+03 0.  0.
         25    1    3    3    0    0 -0.68382058615E+02 -0.37236996631E+02  0.61125329587E+02  0.15951963476E+03  0.12509000000E+03 0.  0.
         25    1    4    4    0    0  0.36001208844E+02 -0.17656014146E+02  0.18286804564E+03  0.22515783818E+03  0.12509000000E+03 0.  0.
         25    1    4    4    0    0  0.32380849771E+02  0.54893010777E+02  0.26804391311E+03  0.30258355791E+03  0.12509000000E+03 0.  0.
<mgrwt>
<rscale>  2 0.45841634E+03</rscale>
<asrwt>0</asrwt>
<pdfrwt beam="1">  1       21 0.88183698E-01 0.45841634E+03</pdfrwt>
<pdfrwt beam="2">  1       21 0.12884099E-01 0.45841634E+03</pdfrwt>
<totfact> 0.52182525E+04</totfact>
</mgrwt>
</event>
<event>
 7    0  0.4709932E-002  0.4524912E+03  0.7546771E-02  0.1026982E+00
         21   -1    0    0  502  501  0.00000000000E+00  0.00000000000E+00  0.89943699624E+02  0.89943699624E+02  0.00000000000E+00 0. -1.
         21   -1    0    0  501  502 -0.00000000000E+00 -0.00000000000E+00 -0.56910133605E+03  0.56910133605E+03  0.00000000000E+00 0. -1.
      99926    2    1    2    0    0 -0.35527136788E-14  0.00000000000E+00 -0.47915763642E+03  0.65904503567E+03  0.45249123583E+03 0.  0.
      99925    2    3    3    0    0 -0.31637298828E+02  0.10565756612E+03 -0.28723498396E+03  0.40478876223E+03  0.26303149252E+03 0.  0.
         25    1    3    3    0    0  0.31637298828E+02 -0.10565756612E+03 -0.19192265246E+03  0.25425627344E+03  0.12509000000E+03 0.  0.
         25    1    4    4    0    0 -0.50249919259E+02  0.34716603368E+02 -0.15771808785E+03  0.21036349557E+03  0.12509000000E+03 0.  0.
         25    1    4    4    0    0  0.18612620431E+02  0.70940962756E+02 -0.12951689612E+03  0.19442526666E+03  0.12509000000E+03 0.  0.
<mgrwt>
<rscale>  2 0.45249124E+03</rscale>
<asrwt>0</asrwt>
<pdfrwt beam="1">  1       21 0.13227014E-01 0.45249124E+03</pdfrwt>
<pdfrwt beam="2">  1       21 0.83691374E-01 0.45249124E+03</pdfrwt>
<totfact> 0.56288398E+04</totfact>
</mgrwt>
</event>
<event>
 7    0  0.4709932E-002  0.4571381E+03  0.7546771E-02  0.1025615E+00
         21   -1    0    0  502  501  0.00000000000E+00  0.00000000000E+00  0.32645930436E+03  0.32645930436E+03  0.00000000000E+00 0. -1.
         21   -1    0    0  501  502 -0.00000000000E+00 -0.00000000000E+00 -0.16003158704E+03  0.16003158704E+03  0.00000000000E+00 0. -1.
      99926    2    1    2    0    0  0.00000000000E+00 -0.14210854715E-13  0.16642771732E+03  0.48649089141E+03  0.45713805609E+03 0.  0.
      99925    2    3    3    0    0 -0.23921709945E+02 -0.96929003712E+02  0.43710095454E+02  0.28481143587E+03  0.26313399931E+03 0.  0.
         25    1    4    4    0    0  0.38604503698E+01 -0.68216720578E+02  0.55521350222E+02  0.15296585395E+03  0.12509000000E+03 0.  0.
         25    1    3    3    0    0  0.23921709945E+02  0.96929003712E+02  0.12271762187E+03  0.20167945553E+03  0.12509000000E+03 0.  0.
         25    1    4    4    0    0 -0.27782160314E+02 -0.28712283135E+02 -0.11811254767E+02  0.13184558193E+03  0.12509000000E+03 0.  0.
<mgrwt>
<rscale>  2 0.45713806E+03</rscale>
<asrwt>0</asrwt>
<pdfrwt beam="1">  1       21 0.48008721E-01 0.45713806E+03</pdfrwt>
<pdfrwt beam="2">  1       21 0.23534057E-01 0.45713806E+03</pdfrwt>
<totfact> 0.65118292E+04</totfact>
</mgrwt>
</event>
<event>
 7    0  0.4709932E-002  0.4517715E+03  0.7546771E-02  0.1027195E+00
         21   -1    0    0  502  501  0.00000000000E+00  0.00000000000E+00  0.36765857596E+03  0.36765857596E+03  0.00000000000E+00 0.  1.
         21   -1    0    0  501  502 -0.00000000000E+00 -0.00000000000E+00 -0.13878192253E+03  0.13878192253E+03  0.00000000000E+00 0.  1.
      99926    2    1    2    0    0 -0.14210854715E-13 -0.71054273576E-14  0.22887665343E+03  0.50644049850E+03  0.45177146438E+03 0.  0.
      99925    2    3    3    0    0  0.92216241204E+02  0.58697819810E+02  0.15758482071E+03  0.32566632251E+03  0.26320392988E+03 0.  0.
         25    1    4    4    0    0  0.22756748092E+02 -0.19849714111E+01  0.92138922317E+02  0.15703152168E+03  0.12509000000E+03 0.  0.
         25    1    4    4    0    0  0.69459493112E+02  0.60682791221E+02  0.65445898389E+02  0.16863480083E+03  0.12509000000E+03 0.  0.
         25    1    3    3    0    0 -0.92216241204E+02 -0.58697819810E+02  0.71291832721E+02  0.18077417599E+03  0.12509000000E+03 0.  0.
<mgrwt>
<rscale>  2 0.45177146E+03</rscale>
<asrwt>0</asrwt>
<pdfrwt beam="1">  1       21 0.54067437E-01 0.45177146E+03</pdfrwt>
<pdfrwt beam="2">  1       21 0.20409106E-01 0.45177146E+03</pdfrwt>
<totfact> 0.66508452E+04</totfact>
</mgrwt>
</event>
<event>
 7    0  0.4709932E-002  0.4522660E+03  0.7546771E-02  0.1027048E+00
         21   -1    0    0  502  501  0.00000000000E+00  0.00000000000E+00  0.14324155334E+03  0.14324155334E+03  0.00000000000E+00 0.  1.
         21   -1    0    0  501  502 -0.00000000000E+00 -0.00000000000E+00 -0.35699234312E+03  0.35699234312E+03  0.00000000000E+00 0.  1.
      99926    2    1    2    0    0  0.14210854715E-13  0.00000000000E+00 -0.21375078977E+03  0.50023389646E+03  0.45226601800E+03 0.  0.
      99925    2    3    3    0    0 -0.10861177626E+03  0.19518541731E+02 -0.14073345435E+03  0.31814454810E+03  0.26312080287E+03 0.  0.
         25    1    4    4    0    0 -0.82255787572E+02 -0.20070844173E+02 -0.65720047672E+02  0.16472852255E+03  0.12509000000E+03 0.  0.
         25    1    3    3    0    0  0.10861177626E+03 -0.19518541731E+02 -0.73017335424E+02  0.18208934836E+03  0.12509000000E+03 0.  0.
         25    1    4    4    0    0 -0.26355988686E+02  0.39589385904E+02 -0.75013406679E+02  0.15341602556E+03  0.12509000000E+03 0.  0.
<mgrwt>
<rscale>  2 0.45226602E+03</rscale>
<asrwt>0</asrwt>
<pdfrwt beam="1">  1       21 0.21064935E-01 0.45226602E+03</pdfrwt>
<pdfrwt beam="2">  1       21 0.52498873E-01 0.45226602E+03</pdfrwt>
<totfact> 0.66689814E+04</totfact>
</mgrwt>
</event>
<event>
 7    0  0.4709932E-002  0.4548137E+03  0.7546771E-02  0.1026296E+00
         21   -1    0    0  502  501  0.00000000000E+00  0.00000000000E+00  0.44853561793E+03  0.44853561793E+03  0.00000000000E+00 0. -1.
         21   -1    0    0  501  502 -0.00000000000E+00 -0.00000000000E+00 -0.11529490073E+03  0.11529490073E+03  0.00000000000E+00 0. -1.
      99926    2    1    2    0    0  0.14210854715E-13  0.00000000000E+00  0.33324071720E+03  0.56383051866E+03  0.45481367413E+03 0.  0.
      99925    2    3    3    0    0 -0.10373568952E+03 -0.23654406330E+02  0.16321378378E+03  0.32744674087E+03  0.26317675557E+03 0.  0.
         25    1    4    4    0    0 -0.64768484628E+02 -0.47972187619E+02  0.67636309837E+02  0.16345784134E+03  0.12509000000E+03 0.  0.
         25    1    3    3    0    0  0.10373568952E+03  0.23654406330E+02  0.17002693342E+03  0.23638377780E+03  0.12509000000E+03 0.  0.
         25    1    4    4    0    0 -0.38967204889E+02  0.24317781289E+02  0.95577473945E+02  0.16398889953E+03  0.12509000000E+03 0.  0.
<mgrwt>
<rscale>  2 0.45481367E+03</rscale>
<asrwt>0</asrwt>
<pdfrwt beam="1">  1       21 0.65961120E-01 0.45481367E+03</pdfrwt>
<pdfrwt beam="2">  1       21 0.16955133E-01 0.45481367E+03</pdfrwt>
<totfact> 0.61051647E+04</totfact>
</mgrwt>
</event>
<event>
 7    0  0.4709932E-002  0.4505309E+03  0.7546771E-02  0.1027564E+00
         21   -1    0    0  502  501  0.00000000000E+00  0.00000000000E+00  0.27008720607E+02  0.27008720607E+02  0.00000000000E+00 0. -1.
         21   -1    0    0  501  502 -0.00000000000E+00 -0.00000000000E+00 -0.18788196237E+04  0.18788196237E+04  0.00000000000E+00 0. -1.
      99926    2    1    2    0    0  0.14210854715E-13 -0.71054273576E-14 -0.18518109031E+04  0.19058283443E+04  0.45053086148E+03 0.  0.
      99925    2    3    3    0    0  0.77723548007E+02 -0.44396982056E+02 -0.14323689590E+04  0.14590721529E+04  0.26305640260E+03 0.  0.
         25    1    4    4    0    0 -0.67290284507E+00 -0.11916018797E+02 -0.71388924573E+03  0.72486399246E+03  0.12509000000E+03 0.  0.
         25    1    3    3    0    0 -0.77723548007E+02  0.44396982056E+02 -0.41944194414E+03  0.44675619138E+03  0.12509000000E+03 0.  0.
         25    1    4    4    0    0  0.78396450852E+02 -0.32480963260E+02 -0.71847971323E+03  0.73420816048E+03  0.12509000000E+03 0.  0.
<mgrwt>
<rscale>  2 0.45053086E+03</rscale>
<asrwt>0</asrwt>
<pdfrwt beam="1">  1       21 0.39718712E-02 0.45053086E+03</pdfrwt>
<pdfrwt beam="2">  1       21 0.27629697E+00 0.45053086E+03</pdfrwt>
<totfact> 0.15851474E+04</totfact>
</mgrwt>
</event>
<event>
 7    0  0.4709932E-002  0.4518899E+03  0.7546771E-02  0.1027160E+00
         21   -1    0    0  502  501  0.00000000000E+00  0.00000000000E+00  0.10210602895E+03  0.10210602895E+03  0.00000000000E+00 0.  1.
         21   -1    0    0  501  502 -0.00000000000E+00 -0.00000000000E+00 -0.49998142800E+03  0.49998142800E+03  0.00000000000E+00 0.  1.
      99926    2    1    2    0    0 -0.35527136788E-14  0.00000000000E+00 -0.39787539906E+03  0.60208745695E+03  0.45188988995E+03 0.  0.
      99925    2    3    3    0    0  0.31173837131E+02  0.79955213074E+02 -0.34342933969E+03  0.44091510913E+03  0.26286456187E+03 0.  0.
         25    1    4    4    0    0  0.24134299615E+01  0.30509390744E+02 -0.22573781031E+03  0.25988788865E+03  0.12509000000E+03 0.  0.
         25    1    4    4    0    0  0.28760407170E+02  0.49445822330E+02 -0.11769152938E+03  0.18102722048E+03  0.12509000000E+03 0.  0.
         25    1    3    3    0    0 -0.31173837131E+02 -0.79955213074E+02 -0.54446059373E+02  0.16117234782E+03  0.12509000000E+03 0.  0.
<mgrwt>
<rscale>  2 0.45188989E+03</rscale>
<asrwt>0</asrwt>
<pdfrwt beam="1">  1       21 0.15015592E-01 0.45188989E+03</pdfrwt>
<pdfrwt beam="2">  1       21 0.73526681E-01 0.45188989E+03</pdfrwt>
<totfact> 0.60011010E+04</totfact>
</mgrwt>
</event>
<event>
 7    0  0.4709932E-002  0.4450535E+03  0.7546771E-02  0.1029207E+00
         21   -1    0    0  502  501  0.00000000000E+00  0.00000000000E+00  0.28996401011E+03  0.28996401011E+03  0.00000000000E+00 0.  1.
         21   -1    0    0  501  502 -0.00000000000E+00 -0.00000000000E+00 -0.17077348678E+03  0.17077348678E+03  0.00000000000E+00 0.  1.
      99926    2    1    2    0    0  0.14210854715E-13  0.00000000000E+00  0.11919052333E+03  0.46073749689E+03  0.44505354755E+03 0.  0.
      99925    2    3    3    0    0  0.67676875179E+02  0.67611545114E+02  0.34624417587E+02  0.28199070725E+03  0.26299891295E+03 0.  0.
         25    1    4    4    0    0  0.52453838526E+02  0.49083015070E+02  0.52224400215E+02  0.15341265796E+03  0.12509000000E+03 0.  0.
         25    1    4    4    0    0  0.15223036653E+02  0.18528530044E+02 -0.17599982627E+02  0.12857804929E+03  0.12509000000E+03 0.  0.
         25    1    3    3    0    0 -0.67676875179E+02 -0.67611545114E+02  0.84566105741E+02  0.17874678964E+03  0.12509000000E+03 0.  0.
<mgrwt>
<rscale>  2 0.44505355E+03</rscale>
<asrwt>0</asrwt>
<pdfrwt beam="1">  1       21 0.42641766E-01 0.44505355E+03</pdfrwt>
<pdfrwt beam="2">  1       21 0.25113748E-01 0.44505355E+03</pdfrwt>
<totfact> 0.73782834E+04</totfact>
</mgrwt>
</event>
<event>
 7    0  0.4709932E-002  0.4551211E+03  0.7546771E-02  0.1026206E+00
         21   -1    0    0  502  501  0.00000000000E+00  0.00000000000E+00  0.23439979010E+03  0.23439979010E+03  0.00000000000E+00 0.  1.
         21   -1    0    0  501  502 -0.00000000000E+00 -0.00000000000E+00 -0.22092089218E+03  0.22092089218E+03  0.00000000000E+00 0.  1.
      99926    2    1    2    0    0 -0.71054273576E-14  0.00000000000E+00  0.13478897927E+02  0.45532068228E+03  0.45512113005E+03 0.  0.
      99925    2    3    3    0    0 -0.53535893438E+02  0.93031645004E+02  0.44985066204E+02  0.28750791281E+03  0.26289953383E+03 0.  0.
         25    1    4    4    0    0 -0.63950595628E+02  0.34079145395E+02  0.33229548452E+02  0.14833333348E+03  0.12509000000E+03 0.  0.
         25    1    4    4    0    0  0.10414702190E+02  0.58952499609E+02  0.11755517752E+02  0.13917457932E+03  0.12509000000E+03 0.  0.
         25    1    3    3    0    0  0.53535893438E+02 -0.93031645004E+02 -0.31506168277E+02  0.16781276947E+03  0.12509000000E+03 0.  0.
<mgrwt>
<rscale>  2 0.45512113E+03</rscale>
<asrwt>0</asrwt>
<pdfrwt beam="1">  1       21 0.34470558E-01 0.45512113E+03</pdfrwt>
<pdfrwt beam="2">  1       21 0.32488366E-01 0.45512113E+03</pdfrwt>
<totfact> 0.68456130E+04</totfact>
</mgrwt>
</event>
<event>
 7    0  0.4709932E-002  0.4488972E+03  0.7546771E-02  0.1028051E+00
         21   -1    0    0  502  501  0.00000000000E+00  0.00000000000E+00  0.18149744865E+04  0.18149744865E+04  0.00000000000E+00 0. -1.
         21   -1    0    0  501  502 -0.00000000000E+00 -0.00000000000E+00 -0.27756403240E+02  0.27756403240E+02  0.00000000000E+00 0. -1.
      99926    2    1    2    0    0  0.14210854715E-13 -0.88817841970E-15  0.17872180833E+04  0.18427308897E+04  0.44889715400E+03 0.  0.
      99925    2    3    3    0    0 -0.93523171695E+02  0.50372961621E+00  0.91465082286E+03  0.95629534814E+03  0.26299777134E+03 0.  0.
         25    1    4    4    0    0 -0.86300155686E+02  0.55124242641E+01  0.44889584672E+03  0.47395473729E+03  0.12509000000E+03 0.  0.
         25    1    3    3    0    0  0.93523171695E+02 -0.50372961621E+00  0.87256726039E+03  0.88643554159E+03  0.12509000000E+03 0.  0.
         25    1    4    4    0    0 -0.72230160089E+01 -0.50086946478E+01  0.46575497614E+03  0.48234061085E+03  0.12509000000E+03 0.  0.
<mgrwt>
<rscale>  2 0.44889715E+03</rscale>
<asrwt>0</asrwt>
<pdfrwt beam="1">  1       21 0.26690793E+00 0.44889715E+03</pdfrwt>
<pdfrwt beam="2">  1       21 0.40818253E-02 0.44889715E+03</pdfrwt>
<totfact> 0.17255020E+04</totfact>
</mgrwt>
</event>
<event>
 7    0  0.4709932E-002  0.4587145E+03  0.7546771E-02  0.1025155E+00
         21   -1    0    0  502  501  0.00000000000E+00  0.00000000000E+00  0.54419332781E+03  0.54419332781E+03  0.00000000000E+00 0. -1.
         21   -1    0    0  501  502 -0.00000000000E+00 -0.00000000000E+00 -0.96665546515E+02  0.96665546515E+02  0.00000000000E+00 0. -1.
      99926    2    1    2    0    0 -0.35527136788E-14  0.14210854715E-13  0.44752778130E+03  0.64085887433E+03  0.45871448829E+03 0.  0.
      99925    2    3    3    0    0  0.14262059845E+02 -0.94815789283E+02  0.37342853844E+03  0.46669904503E+03  0.26299369777E+03 0.  0.
         25    1    4    4    0    0  0.44621725483E+02 -0.34028392045E+02  0.19678425168E+03  0.23983448388E+03  0.12509000000E+03 0.  0.
         25    1    3    3    0    0 -0.14262059845E+02  0.94815789283E+02  0.74099242860E+02  0.17415982930E+03  0.12509000000E+03 0.  0.
         25    1    4    4    0    0 -0.30359665638E+02 -0.60787397238E+02  0.17664428676E+03  0.22686456115E+03  0.12509000000E+03 0.  0.
<mgrwt>
<rscale>  2 0.45871449E+03</rscale>
<asrwt>0</asrwt>
<pdfrwt beam="1">  1       21 0.80028430E-01 0.45871449E+03</pdfrwt>
<pdfrwt beam="2">  1       21 0.14215522E-01 0.45871449E+03</pdfrwt>
<totfact> 0.54612646E+04</totfact>
</mgrwt>
</event>
<event>
 7    0  0.4709932E-002  0.4716837E+03  0.7546771E-02  0.1021446E+00
         21   -1    0    0  502  501  0.00000000000E+00  0.00000000000E+00  0.40498257088E+02  0.40498257088E+02  0.00000000000E+00 0. -1.
         21   -1    0    0  501  502 -0.00000000000E+00 -0.00000000000E+00 -0.13734262646E+04  0.13734262646E+04  0.00000000000E+00 0. -1.
      99926    2    1    2    0    0  0.17763568394E-14  0.00000000000E+00 -0.13329280075E+04  0.14139245217E+04  0.47168366499E+03 0.  0.
      99925    2    3    3    0    0  0.13139733491E+02  0.38591047096E+02 -0.11908755416E+04  0.12203054816E+04  0.26324701575E+03 0.  0.
         25    1    4    4    0    0  0.42076221733E+02  0.39389590452E+02 -0.64319025162E+03  0.65777135553E+03  0.12509000000E+03 0.  0.
         25    1    3    3    0    0 -0.13139733491E+02 -0.38591047096E+02 -0.14205246585E+03  0.19361904004E+03  0.12509000000E+03 0.  0.
         25    1    4    4    0    0 -0.28936488242E+02 -0.79854335651E+00 -0.54768529002E+03  0.56253412610E+03  0.12509000000E+03 0.  0.
<mgrwt>
<rscale>  2 0.47168366E+03</rscale>
<asrwt>0</asrwt>
<pdfrwt beam="1">  1       21 0.59556252E-02 0.47168366E+03</pdfrwt>
<pdfrwt beam="2">  1       21 0.20197448E+00 0.47168366E+03</pdfrwt>
<totfact> 0.22853749E+04</totfact>
</mgrwt>
</event>
<event>
 7    0  0.4709932E-002  0.4618356E+03  0.7546771E-02  0.1024250E+00
         21   -1    0    0  502  501  0.00000000000E+00  0.00000000000E+00  0.42047629700E+02  0.42047629700E+02  0.00000000000E+00 0. -1.
         21   -1    0    0  501  502 -0.00000000000E+00 -0.00000000000E+00 -0.12681576190E+04  0.12681576190E+04  0.00000000000E+00 0. -1.
      99926    2    1    2    0    0  0.88817841970E-15  0.00000000000E+00 -0.12261099893E+04  0.13102052487E+04  0.46183556365E+03 0.  0.
      99925    2    3    3    0    0  0.40616461604E+01  0.10542070712E+03 -0.92522435407E+03  0.96770021801E+03  0.26319875400E+03 0.  0.
         25    1    3    3    0    0 -0.40616461604E+01 -0.10542070712E+03 -0.30088563521E+03  0.34250503068E+03  0.12509000000E+03 0.  0.
         25    1    4    4    0    0  0.14033694780E+02  0.89635380702E+02 -0.44352396884E+03  0.46967272126E+03  0.12509000000E+03 0.  0.
         25    1    4    4    0    0 -0.99720486199E+01  0.15785326421E+02 -0.48170038523E+03  0.49802749674E+03  0.12509000000E+03 0.  0.
<mgrwt>
<rscale>  2 0.46183556E+03</rscale>
<asrwt>0</asrwt>
<pdfrwt beam="1">  1       21 0.61834739E-02 0.46183556E+03</pdfrwt>
<pdfrwt beam="2">  1       21 0.18649380E+00 0.46183556E+03</pdfrwt>
<totfact> 0.27337216E+04</totfact>
</mgrwt>
</event>
<event>
 7    0  0.4709932E-002  0.4531457E+03  0.7546771E-02  0.1026788E+00
         21   -1    0    0  502  501  0.00000000000E+00  0.00000000000E+00  0.20195530586E+03  0.20195530586E+03  0.00000000000E+00 0.  1.
         21   -1    0    0  501  502 -0.00000000000E+00 -0.00000000000E+00 -0.25419121103E+03  0.25419121103E+03  0.00000000000E+00 0.  1.
      99926    2    1    2    0    0  0.00000000000E+00 -0.71054273576E-14 -0.52235905168E+02  0.45614651689E+03  0.45314573272E+03 0.  0.
      99925    2    3    3    0    0 -0.50317379161E+02  0.47973175113E+02 -0.12061613232E+03  0.29753810684E+03  0.26295895016E+03 0.  0.
         25    1    4    4    0    0 -0.59261322833E+02  0.14340505870E+02 -0.84353261161E+02  0.16272840951E+03  0.12509000000E+03 0.  0.
         25    1    3    3    0    0  0.50317379161E+02 -0.47973175113E+02  0.68380227153E+02  0.15860841006E+03  0.12509000000E+03 0.  0.
         25    1    4    4    0    0  0.89439436715E+01  0.33632669243E+02 -0.36262871160E+02  0.13480969733E+03  0.12509000000E+03 0.  0.
<mgrwt>
<rscale>  2 0.45314573E+03</rscale>
<asrwt>0</asrwt>
<pdfrwt beam="1">  1       21 0.29699310E-01 0.45314573E+03</pdfrwt>
<pdfrwt beam="2">  1       21 0.37381060E-01 0.45314573E+03</pdfrwt>
<totfact> 0.69484078E+04</totfact>
</mgrwt>
</event>
<event>
 7    0  0.4709932E-002  0.4575485E+03  0.7546771E-02  0.1025495E+00
         21   -1    0    0  502  501  0.00000000000E+00  0.00000000000E+00  0.74074571270E+02  0.74074571270E+02  0.00000000000E+00 0.  1.
         21   -1    0    0  501  502 -0.00000000000E+00 -0.00000000000E+00 -0.70655375927E+03  0.70655375927E+03  0.00000000000E+00 0.  1.
      99926    2    1    2    0    0  0.00000000000E+00  0.00000000000E+00 -0.63247918800E+03  0.78062833054E+03  0.45754854080E+03 0.  0.
      99925    2    3    3    0    0 -0.30112058000E+02  0.74701629518E+02 -0.53831347748E+03  0.60455516783E+03  0.26309405433E+03 0.  0.
         25    1    4    4    0    0  0.10306129142E+02  0.16445777780E+02 -0.19667821304E+03  0.23389422287E+03  0.12509000000E+03 0.  0.
         25    1    4    4    0    0 -0.40418187142E+02  0.58255851738E+02 -0.34163526444E+03  0.37066094496E+03  0.12509000000E+03 0.  0.
         25    1    3    3    0    0  0.30112058000E+02 -0.74701629518E+02 -0.94165710522E+02  0.17607316271E+03  0.12509000000E+03 0.  0.
<mgrwt>
<rscale>  2 0.45754854E+03</rscale>
<asrwt>0</asrwt>
<pdfrwt beam="1">  1       21 0.10893319E-01 0.45754854E+03</pdfrwt>
<pdfrwt beam="2">  1       21 0.10390497E+00 0.45754854E+03</pdfrwt>
<totfact> 0.47753661E+04</totfact>
</mgrwt>
</event>
<event>
 7    0  0.4709932E-002  0.4490263E+03  0.7546771E-02  0.1028013E+00
         21   -1    0    0  502  501  0.00000000000E+00  0.00000000000E+00  0.59786435395E+02  0.59786435395E+02  0.00000000000E+00 0. -1.
         21   -1    0    0  501  502 -0.00000000000E+00 -0.00000000000E+00 -0.84310338860E+03  0.84310338860E+03  0.00000000000E+00 0. -1.
      99926    2    1    2    0    0  0.00000000000E+00  0.00000000000E+00 -0.78331695321E+03  0.90288982400E+03  0.44902626326E+03 0.  0.
      99925    2    3    3    0    0 -0.50591859522E+02 -0.94025942899E+02 -0.52062668571E+03  0.59296386683E+03  0.26297069667E+03 0.  0.
         25    1    4    4    0    0 -0.40634024917E+02 -0.22504889476E+02 -0.19010085366E+03  0.23225726402E+03  0.12509000000E+03 0.  0.
         25    1    4    4    0    0 -0.99578346050E+01 -0.71521053423E+02 -0.33052583205E+03  0.36070660280E+03  0.12509000000E+03 0.  0.
         25    1    3    3    0    0  0.50591859522E+02  0.94025942899E+02 -0.26269026750E+03  0.30992595717E+03  0.12509000000E+03 0.  0.
<mgrwt>
<rscale>  2 0.44902626E+03</rscale>
<asrwt>0</asrwt>
<pdfrwt beam="1">  1       21 0.87921233E-02 0.44902626E+03</pdfrwt>
<pdfrwt beam="2">  1       21 0.12398579E+00 0.44902626E+03</pdfrwt>
<totfact> 0.45184899E+04</totfact>
</mgrwt>
</event>
<event>
 7    0  0.4709932E-002  0.4472493E+03  0.7546771E-02  0.1028546E+00
         21   -1    0    0  502  501  0.00000000000E+00  0.00000000000E+00  0.10889683841E+03  0.10889683841E+03  0.00000000000E+00 0.  1.
         21   -1    0    0  501  502 -0.00000000000E+00 -0.00000000000E+00 -0.45922349276E+03  0.45922349276E+03  0.00000000000E+00 0.  1.
      99926    2    1    2    0    0  0.00000000000E+00  0.00000000000E+00 -0.35032665435E+03  0.56812033117E+03  0.44724931072E+03 0.  0.
      99925    2    3    3    0    0  0.85334515581E+02  0.61674361941E+02 -0.23363209166E+03  0.36724515716E+03  0.26305768328E+03 0.  0.
         25    1    3    3    0    0 -0.85334515581E+02 -0.61674361941E+02 -0.11669456270E+03  0.20087517401E+03  0.12509000000E+03 0.  0.
         25    1    4    4    0    0  0.26066555869E+02  0.13150614282E+02 -0.15332374979E+03  0.20002020983E+03  0.12509000000E+03 0.  0.
         25    1    4    4    0    0  0.59267959712E+02  0.48523747659E+02 -0.80308341864E+02  0.16722494733E+03  0.12509000000E+03 0.  0.
<mgrwt>
<rscale>  2 0.44724931E+03</rscale>
<asrwt>0</asrwt>
<pdfrwt beam="1">  1       21 0.16014241E-01 0.44724931E+03</pdfrwt>
<pdfrwt beam="2">  1       21 0.67532866E-01 0.44724931E+03</pdfrwt>
<totfact> 0.64551235E+04</totfact>
</mgrwt>
</event>
<event>
 7    0  0.4709932E-002  0.4512147E+03  0.7546771E-02  0.1027360E+00
         21   -1    0    0  502  501  0.00000000000E+00  0.00000000000E+00  0.11980084723E+04  0.11980084723E+04  0.00000000000E+00 0. -1.
         21   -1    0    0  501  502 -0.00000000000E+00 -0.00000000000E+00 -0.42486081831E+02  0.42486081831E+02  0.00000000000E+00 0. -1.
      99926    2    1    2    0    0  0.00000000000E+00  0.00000000000E+00  0.11555223905E+04  0.12404945541E+04  0.45121474262E+03 0.  0.
      99925    2    3    3    0    0 -0.10588293263E+03  0.25693269985E+02  0.69750854053E+03  0.75336465936E+03  0.26299963178E+03 0.  0.
         25    1    4    4    0    0 -0.60416164245E+02  0.47733541734E+02  0.30990006254E+03  0.34294921019E+03  0.12509000000E+03 0.  0.
         25    1    4    4    0    0 -0.45466768384E+02 -0.22040271749E+02  0.38760847799E+03  0.41041544917E+03  0.12509000000E+03 0.  0.
         25    1    3    3    0    0  0.10588293263E+03 -0.25693269985E+02  0.45801384995E+03  0.48712989478E+03  0.12509000000E+03 0.  0.
<mgrwt>
<rscale>  2 0.45121474E+03</rscale>
<asrwt>0</asrwt>
<pdfrwt beam="1">  1       21 0.17617769E+00 0.45121474E+03</pdfrwt>
<pdfrwt beam="2">  1       21 0.62479540E-02 0.45121474E+03</pdfrwt>
<totfact> 0.31820412E+04</totfact>
</mgrwt>
</event>
<event>
 7    0  0.4709932E-002  0.4458212E+03  0.7546771E-02  0.1028976E+00
         21   -1    0    0  502  501  0.00000000000E+00  0.00000000000E+00  0.40821389699E+03  0.40821389699E+03  0.00000000000E+00 0. -1.
         21   -1    0    0  501  502 -0.00000000000E+00 -0.00000000000E+00 -0.12172327585E+03  0.12172327585E+03  0.00000000000E+00 0. -1.
      99926    2    1    2    0    0  0.00000000000E+00 -0.35527136788E-14  0.28649062114E+03  0.52993717284E+03  0.44582118743E+03 0.  0.
      99925    2    3    3    0    0 -0.70814837303E+02  0.46828181232E+01  0.91163813616E+02  0.28737431541E+03  0.26312826962E+03 0.  0.
         25    1    4    4    0    0 -0.36018392043E+02 -0.37656020674E+02  0.53689553111E+02  0.14575793862E+03  0.12509000000E+03 0.  0.
         25    1    3    3    0    0  0.70814837303E+02 -0.46828181232E+01  0.19532680753E+03  0.24256285743E+03  0.12509000000E+03 0.  0.
         25    1    4    4    0    0 -0.34796445260E+02  0.42338838797E+02  0.37474260505E+02  0.14161637679E+03  0.12509000000E+03 0.  0.
<mgrwt>
<rscale>  2 0.44582119E+03</rscale>
<asrwt>0</asrwt>
<pdfrwt beam="1">  1       21 0.60031455E-01 0.44582119E+03</pdfrwt>
<pdfrwt beam="2">  1       21 0.17900482E-01 0.44582119E+03</pdfrwt>
<totfact> 0.68021260E+04</totfact>
</mgrwt>
</event>
<event>
 7    0  0.4709932E-002  0.4508965E+03  0.7546771E-02  0.1027455E+00
         21   -1    0    0  502  501  0.00000000000E+00  0.00000000000E+00  0.49841934079E+02  0.49841934079E+02  0.00000000000E+00 0. -1.
         21   -1    0    0  501  502 -0.00000000000E+00 -0.00000000000E+00 -0.10197619927E+04  0.10197619927E+04  0.00000000000E+00 0. -1.
      99926    2    1    2    0    0  0.71054273576E-14  0.00000000000E+00 -0.96992005858E+03  0.10696039267E+04  0.45089648486E+03 0.  0.
      99925    2    3    3    0    0 -0.34942321561E+02  0.36086110640E+02 -0.84289594177E+03  0.88438565667E+03  0.26294723396E+03 0.  0.
         25    1    4    4    0    0 -0.41997393223E+02  0.49398881811E+02 -0.47920921243E+03  0.49949275064E+03  0.12509000000E+03 0.  0.
         25    1    3    3    0    0  0.34942321561E+02 -0.36086110640E+02 -0.12702411681E+03  0.18521827007E+03  0.12509000000E+03 0.  0.
         25    1    4    4    0    0  0.70550716623E+01 -0.13312771171E+02 -0.36368672934E+03  0.38489290603E+03  0.12509000000E+03 0.  0.
<mgrwt>
<rscale>  2 0.45089648E+03</rscale>
<asrwt>0</asrwt>
<pdfrwt beam="1">  1       21 0.73296958E-02 0.45089648E+03</pdfrwt>
<pdfrwt beam="2">  1       21 0.14996501E+00 0.45089648E+03</pdfrwt>
<totfact> 0.37760961E+04</totfact>
</mgrwt>
</event>
<event>
 7    0  0.4709932E-002  0.4570553E+03  0.7546771E-02  0.1025639E+00
         21   -1    0    0  502  501  0.00000000000E+00  0.00000000000E+00  0.36464089118E+03  0.36464089118E+03  0.00000000000E+00 0. -1.
         21   -1    0    0  501  502 -0.00000000000E+00 -0.00000000000E+00 -0.14322276596E+03  0.14322276596E+03  0.00000000000E+00 0. -1.
      99926    2    1    2    0    0 -0.14210854715E-13  0.00000000000E+00  0.22141812522E+03  0.50786365714E+03  0.45705525712E+03 0.  0.
      99925    2    3    3    0    0 -0.68891798790E+02  0.71784842798E+02  0.77187739667E+02  0.29257534855E+03  0.26408946179E+03 0.  0.
         25    1    4    4    0    0  0.62621373824E+01  0.43959644597E+02  0.24696014549E+02  0.13501505824E+03  0.12509000000E+03 0.  0.
         25    1    3    3    0    0  0.68891798790E+02 -0.71784842798E+02  0.14423038555E+03  0.21528830858E+03  0.12509000000E+03 0.  0.
         25    1    4    4    0    0 -0.75153936172E+02  0.27825198201E+02  0.52491725117E+02  0.15756029031E+03  0.12509000000E+03 0.  0.
<mgrwt>
<rscale>  2 0.45705526E+03</rscale>
<asrwt>0</asrwt>
<pdfrwt beam="1">  1       21 0.53623660E-01 0.45705526E+03</pdfrwt>
<pdfrwt beam="2">  1       21 0.21062172E-01 0.45705526E+03</pdfrwt>
<totfact> 0.63676589E+04</totfact>
</mgrwt>
</event>
<event>
 7    0  0.4709932E-002  0.4376189E+03  0.7546771E-02  0.1031480E+00
         21   -1    0    0  502  501  0.00000000000E+00  0.00000000000E+00  0.62961605023E+02  0.62961605023E+02  0.00000000000E+00 0.  1.
         21   -1    0    0  501  502 -0.00000000000E+00 -0.00000000000E+00 -0.76042482180E+03  0.76042482180E+03  0.00000000000E+00 0.  1.
      99926    2    1    2    0    0  0.00000000000E+00 -0.88817841970E-15 -0.69746321678E+03  0.82338642682E+03  0.43761886285E+03 0.  0.
      99925    2    3    3    0    0 -0.50576256797E+02 -0.48108943997E+01 -0.29139447858E+03  0.39546069647E+03  0.26248298583E+03 0.  0.
         25    1    4    4    0    0 -0.85060772126E+01 -0.31491523666E+02 -0.11121384498E+03  0.17052887388E+03  0.12509000000E+03 0.  0.
         25    1    4    4    0    0 -0.42070179584E+02  0.26680629266E+02 -0.18018063360E+03  0.22493182259E+03  0.12509000000E+03 0.  0.
         25    1    3    3    0    0  0.50576256797E+02  0.48108943997E+01 -0.40606873819E+03  0.42792573035E+03  0.12509000000E+03 0.  0.
<mgrwt>
<rscale>  2 0.43761886E+03</rscale>
<asrwt>0</asrwt>
<pdfrwt beam="1">  1       21 0.92590597E-02 0.43761886E+03</pdfrwt>
<pdfrwt beam="2">  1       21 0.11182718E+00 0.43761886E+03</pdfrwt>
<totfact> 0.53598740E+04</totfact>
</mgrwt>
</event>
<event>
 7    0  0.4709932E-002  0.4429662E+03  0.7546771E-02  0.1029841E+00
         21   -1    0    0  502  501  0.00000000000E+00  0.00000000000E+00  0.41778018355E+03  0.41778018355E+03  0.00000000000E+00 0. -1.
         21   -1    0    0  501  502 -0.00000000000E+00 -0.00000000000E+00 -0.11741761801E+03  0.11741761801E+03  0.00000000000E+00 0. -1.
      99926    2    1    2    0    0 -0.17763568394E-14 -0.14210854715E-13  0.30036256554E+03  0.53519780155E+03  0.44296615673E+03 0.  0.
      99925    2    3    3    0    0  0.10421111206E+02  0.94048071005E+02  0.23540795760E+03  0.36543252710E+03  0.26300263524E+03 0.  0.
         25    1    4    4    0    0  0.29908425222E+02  0.13860604506E+02  0.11736112206E+03  0.17466473979E+03  0.12509000000E+03 0.  0.
         25    1    4    4    0    0 -0.19487314016E+02  0.80187466499E+02  0.11804683554E+03  0.19076778730E+03  0.12509000000E+03 0.  0.
         25    1    3    3    0    0 -0.10421111206E+02 -0.94048071005E+02  0.64954607946E+02  0.16976527446E+03  0.12509000000E+03 0.  0.
<mgrwt>
<rscale>  2 0.44296616E+03</rscale>
<asrwt>0</asrwt>
<pdfrwt beam="1">  1       21 0.61438262E-01 0.44296616E+03</pdfrwt>
<pdfrwt beam="2">  1       21 0.17267297E-01 0.44296616E+03</pdfrwt>
<totfact> 0.69216021E+04</totfact>
</mgrwt>
</event>
<event>
 7    0  0.4709932E-002  0.4492187E+03  0.7546771E-02  0.1027955E+00
         21   -1    0    0  502  501  0.00000000000E+00  0.00000000000E+00  0.31633085448E+02  0.31633085448E+02  0.00000000000E+00 0.  1.
         21   -1    0    0  501  502 -0.00000000000E+00 -0.00000000000E+00 -0.15948287296E+04  0.15948287296E+04  0.00000000000E+00 0.  1.
      99926    2    1    2    0    0  0.00000000000E+00  0.00000000000E+00 -0.15631956441E+04  0.16264618150E+04  0.44921867048E+03 0.  0.
      99925    2    3    3    0    0 -0.78850198188E+02 -0.72493289194E+02 -0.10212589840E+04  0.10600560573E+04  0.26320391602E+03 0.  0.
         25    1    4    4    0    0 -0.54652154135E+02 -0.11339040799E+02 -0.39590415286E+03  0.41893082741E+03  0.12509000000E+03 0.  0.
         25    1    4    4    0    0 -0.24198044054E+02 -0.61154248395E+02 -0.62535483114E+03  0.64112522986E+03  0.12509000000E+03 0.  0.
         25    1    3    3    0    0  0.78850198188E+02  0.72493289194E+02 -0.54193666011E+03  0.56640575774E+03  0.12509000000E+03 0.  0.
<mgrwt>
<rscale>  2 0.44921867E+03</rscale>
<asrwt>0</asrwt>
<pdfrwt beam="1">  1       21 0.46519231E-02 0.44921867E+03</pdfrwt>
<pdfrwt beam="2">  1       21 0.23453370E+00 0.44921867E+03</pdfrwt>
<totfact> 0.21800686E+04</totfact>
</mgrwt>
</event>
<event>
 7    0  0.4709932E-002  0.4523042E+03  0.7546771E-02  0.1027037E+00
         21   -1    0    0  502  501  0.00000000000E+00  0.00000000000E+00  0.15156185515E+04  0.15156185515E+04  0.00000000000E+00 0.  1.
         21   -1    0    0  501  502 -0.00000000000E+00 -0.00000000000E+00 -0.33745150962E+02  0.33745150962E+02  0.00000000000E+00 0.  1.
      99926    2    1    2    0    0  0.00000000000E+00  0.00000000000E+00  0.14818734005E+04  0.15493637024E+04  0.45230421984E+03 0.  0.
      99925    2    3    3    0    0  0.30589968912E+02 -0.10614924707E+03  0.95350680109E+03  0.99526788009E+03  0.26302000793E+03 0.  0.
         25    1    3    3    0    0 -0.30589968912E+02  0.10614924707E+03  0.52836659942E+03  0.55409582234E+03  0.12509000000E+03 0.  0.
         25    1    4    4    0    0  0.98556836749E+01 -0.31477313786E+02  0.32580486975E+03  0.35054853735E+03  0.12509000000E+03 0.  0.
         25    1    4    4    0    0  0.20734285237E+02 -0.74671933283E+02  0.62770193133E+03  0.64471934274E+03  0.12509000000E+03 0.  0.
<mgrwt>
<rscale>  2 0.45230422E+03</rscale>
<asrwt>0</asrwt>
<pdfrwt beam="1">  1       21 0.22288504E+00 0.45230422E+03</pdfrwt>
<pdfrwt beam="2">  1       21 0.49625232E-02 0.45230422E+03</pdfrwt>
<totfact> 0.23074173E+04</totfact>
</mgrwt>
</event>
<event>
 7    0  0.4709932E-002  0.4795584E+03  0.7546771E-02  0.1019257E+00
         21   -1    0    0  502  501  0.00000000000E+00  0.00000000000E+00  0.21698774000E+03  0.21698774000E+03  0.00000000000E+00 0.  1.
         21   -1    0    0  501  502 -0.00000000000E+00 -0.00000000000E+00 -0.26496461364E+03  0.26496461364E+03  0.00000000000E+00 0.  1.
      99926    2    1    2    0    0  0.14210854715E-13 -0.17763568394E-14 -0.47976873644E+02  0.48195235365E+03  0.47955843312E+03 0.  0.
      99925    2    3    3    0    0 -0.10667833966E+03  0.12920978883E+02 -0.11155051655E+03  0.30521431015E+03  0.26299246667E+03 0.  0.
         25    1    4    4    0    0 -0.75880848893E+02 -0.11284923430E+02 -0.26923893666E+02  0.14919000260E+03  0.12509000000E+03 0.  0.
         25    1    4    4    0    0 -0.30797490764E+02  0.24205902313E+02 -0.84626622887E+02  0.15602430755E+03  0.12509000000E+03 0.  0.
         25    1    3    3    0    0  0.10667833966E+03 -0.12920978883E+02  0.63573642909E+02  0.17673804350E+03  0.12509000000E+03 0.  0.
<mgrwt>
<rscale>  2 0.47955843E+03</rscale>
<asrwt>0</asrwt>
<pdfrwt beam="1">  1       21 0.31909962E-01 0.47955843E+03</pdfrwt>
<pdfrwt beam="2">  1       21 0.38965384E-01 0.47955843E+03</pdfrwt>
<totfact> 0.55017940E+04</totfact>
</mgrwt>
</event>
<event>
 7    0  0.4709932E-002  0.4584495E+03  0.7546771E-02  0.1025232E+00
         21   -1    0    0  502  501  0.00000000000E+00  0.00000000000E+00  0.16610197398E+03  0.16610197398E+03  0.00000000000E+00 0.  1.
         21   -1    0    0  501  502 -0.00000000000E+00 -0.00000000000E+00 -0.31633570590E+03  0.31633570590E+03  0.00000000000E+00 0.  1.
      99926    2    1    2    0    0  0.00000000000E+00  0.00000000000E+00 -0.15023373191E+03  0.48243767988E+03  0.45844949642E+03 0.  0.
      99925    2    3    3    0    0 -0.95304184464E+02  0.66111471051E+02 -0.10379800790E+03  0.30564005901E+03  0.26303650896E+03 0.  0.
         25    1    4    4    0    0 -0.21543959503E+02  0.28954163956E+02 -0.82773075308E+02  0.15427694545E+03  0.12509000000E+03 0.  0.
         25    1    4    4    0    0 -0.73760224962E+02  0.37157307094E+02 -0.21024932594E+02  0.15136311356E+03  0.12509000000E+03 0.  0.
         25    1    3    3    0    0  0.95304184464E+02 -0.66111471051E+02 -0.46435724013E+02  0.17679762087E+03  0.12509000000E+03 0.  0.
<mgrwt>
<rscale>  2 0.45844950E+03</rscale>
<asrwt>0</asrwt>
<pdfrwt beam="1">  1       21 0.24426761E-01 0.45844950E+03</pdfrwt>
<pdfrwt beam="2">  1       21 0.46519956E-01 0.45844950E+03</pdfrwt>
<totfact> 0.64732430E+04</totfact>
</mgrwt>
</event>
<event>
 7    0  0.4709932E-002  0.4560397E+03  0.7546771E-02  0.1025936E+00
         21   -1    0    0  502  501  0.00000000000E+00  0.00000000000E+00  0.17636947748E+03  0.17636947748E+03  0.00000000000E+00 0.  1.
         21   -1    0    0  501  502 -0.00000000000E+00 -0.00000000000E+00 -0.29479616203E+03  0.29479616203E+03  0.00000000000E+00 0.  1.
      99926    2    1    2    0    0  0.00000000000E+00  0.00000000000E+00 -0.11842668455E+03  0.47116563951E+03  0.45603966960E+03 0.  0.
      99925    2    3    3    0    0  0.79876681783E+02 -0.60368413474E+02 -0.17993553376E+02  0.28206526517E+03  0.26308252739E+03 0.  0.
         25    1    4    4    0    0  0.30756860240E+02 -0.67190655799E+02  0.58670462864E+01  0.14540460450E+03  0.12509000000E+03 0.  0.
         25    1    4    4    0    0  0.49119821542E+02  0.68222423248E+01 -0.23860599662E+02  0.13666066067E+03  0.12509000000E+03 0.  0.
         25    1    3    3    0    0 -0.79876681783E+02  0.60368413474E+02 -0.10043313117E+03  0.18910037434E+03  0.12509000000E+03 0.  0.
<mgrwt>
<rscale>  2 0.45603967E+03</rscale>
<asrwt>0</asrwt>
<pdfrwt beam="1">  1       21 0.25936688E-01 0.45603967E+03</pdfrwt>
<pdfrwt beam="2">  1       21 0.43352377E-01 0.45603967E+03</pdfrwt>
<totfact> 0.66796485E+04</totfact>
</mgrwt>
</event>
<event>
 6    0  0.4709932E-002  0.4551215E+03  0.7546771E-02  0.1026206E+00
         21   -1    0    0  502  501  0.00000000000E+00  0.00000000000E+00  0.35169125741E+03  0.35169125741E+03  0.00000000000E+00 0. -1.
         21   -1    0    0  501  502 -0.00000000000E+00 -0.00000000000E+00 -0.14724249046E+03  0.14724249046E+03  0.00000000000E+00 0. -1.
      99926    2    1    2    0    0 -0.71054273576E-14  0.00000000000E+00  0.20444876695E+03  0.49893374787E+03  0.45512150735E+03 0.  0.
         25    1    3    3    0    0  0.51697050363E+02 -0.40678861423E+02 -0.27603350104E+02  0.14400280490E+03  0.12509000000E+03 0.  0.
         25    1    3    3    0    0 -0.39111382987E+02  0.36085131804E+02  0.16000936807E+03  0.20995795529E+03  0.12509000000E+03 0.  0.
         25    1    3    3    0    0 -0.12585667376E+02  0.45937296197E+01  0.72042748981E+02  0.14497298768E+03  0.12509000000E+03 0.  0.
<mgrwt>
<rscale>  2 0.45512151E+03</rscale>
<asrwt>0</asrwt>
<pdfrwt beam="1">  1       21 0.51719303E-01 0.45512151E+03</pdfrwt>
<pdfrwt beam="2">  1       21 0.21653307E-01 0.45512151E+03</pdfrwt>
<totfact> 0.65282642E+04</totfact>
</mgrwt>
</event>
<event>
 7    0  0.4709932E-002  0.4487510E+03  0.7546771E-02  0.1028095E+00
         21   -1    0    0  502  501  0.00000000000E+00  0.00000000000E+00  0.17512790949E+03  0.17512790949E+03  0.00000000000E+00 0. -1.
         21   -1    0    0  501  502 -0.00000000000E+00 -0.00000000000E+00 -0.28747192517E+03  0.28747192517E+03  0.00000000000E+00 0. -1.
      99926    2    1    2    0    0  0.35527136788E-14  0.00000000000E+00 -0.11234401568E+03  0.46259983466E+03  0.44875096565E+03 0.  0.
      99925    2    3    3    0    0  0.31440427979E+02  0.60951997547E+02  0.13774192360E+02  0.27218723787E+03  0.26304470641E+03 0.  0.
         25    1    4    4    0    0  0.53041203354E+02  0.44711727792E+02 -0.33046764730E+01  0.14307668169E+03  0.12509000000E+03 0.  0.
         25    1    3    3    0    0 -0.31440427979E+02 -0.60951997547E+02 -0.12611820804E+03  0.19041259679E+03  0.12509000000E+03 0.  0.
         25    1    4    4    0    0 -0.21600775375E+02  0.16240269754E+02  0.17078868833E+02  0.12911055619E+03  0.12509000000E+03 0.  0.
<mgrwt>
<rscale>  2 0.44875097E+03</rscale>
<asrwt>0</asrwt>
<pdfrwt beam="1">  1       21 0.25754105E-01 0.44875097E+03</pdfrwt>
<pdfrwt beam="2">  1       21 0.42275283E-01 0.44875097E+03</pdfrwt>
<totfact> 0.71467632E+04</totfact>
</mgrwt>
</event>
<event>
 7    0  0.4709932E-002  0.4514474E+03  0.7546771E-02  0.1027291E+00
         21   -1    0    0  502  501  0.00000000000E+00  0.00000000000E+00  0.23142245585E+03  0.23142245585E+03  0.00000000000E+00 0.  1.
         21   -1    0    0  501  502 -0.00000000000E+00 -0.00000000000E+00 -0.22016531081E+03  0.22016531081E+03  0.00000000000E+00 0.  1.
      99926    2    1    2    0    0  0.71054273576E-14  0.88817841970E-15  0.11257145043E+02  0.45158776666E+03  0.45144743624E+03 0.  0.
      99925    2    3    3    0    0  0.50264403624E+02 -0.35466589026E+01 -0.90498125963E+02  0.28264774080E+03  0.26298430660E+03 0.  0.
         25    1    4    4    0    0  0.35269206677E+01  0.32764194595E+02 -0.45675206321E+02  0.13718478119E+03  0.12509000000E+03 0.  0.
         25    1    4    4    0    0  0.46737482956E+02 -0.36310853497E+02 -0.44822919642E+02  0.14546295962E+03  0.12509000000E+03 0.  0.
         25    1    3    3    0    0 -0.50264403624E+02  0.35466589026E+01  0.10175527101E+03  0.16894002586E+03  0.12509000000E+03 0.  0.
<mgrwt>
<rscale>  2 0.45144744E+03</rscale>
<asrwt>0</asrwt>
<pdfrwt beam="1">  1       21 0.34032714E-01 0.45144744E+03</pdfrwt>
<pdfrwt beam="2">  1       21 0.32377252E-01 0.45144744E+03</pdfrwt>
<totfact> 0.70781680E+04</totfact>
</mgrwt>
</event>
<event>
 7    0  0.4709932E-002  0.4039751E+03  0.7546771E-02  0.1042412E+00
         21   -1    0    0  502  501  0.00000000000E+00  0.00000000000E+00  0.63414129765E+02  0.63414129765E+02  0.00000000000E+00 0. -1.
         21   -1    0    0  501  502 -0.00000000000E+00 -0.00000000000E+00 -0.64337341529E+03  0.64337341529E+03  0.00000000000E+00 0. -1.
      99926    2    1    2    0    0  0.26645352591E-14  0.00000000000E+00 -0.57995928552E+03  0.70678754505E+03  0.40397507470E+03 0.  0.
      99925    2    3    3    0    0  0.79835161001E+01 -0.34902470164E+02 -0.45263651123E+03  0.52474217734E+03  0.26304490572E+03 0.  0.
         25    1    3    3    0    0 -0.79835161001E+01  0.34902470164E+02 -0.12732277430E+03  0.18204536772E+03  0.12509000000E+03 0.  0.
         25    1    4    4    0    0  0.21918100458E+02 -0.27597780617E+02 -0.16019239513E+03  0.20627930623E+03  0.12509000000E+03 0.  0.
         25    1    4    4    0    0 -0.13934584358E+02 -0.73046895463E+01 -0.29244411610E+03  0.31846287111E+03  0.12509000000E+03 0.  0.
<mgrwt>
<rscale>  2 0.40397507E+03</rscale>
<asrwt>0</asrwt>
<pdfrwt beam="1">  1       21 0.93256071E-02 0.40397507E+03</pdfrwt>
<pdfrwt beam="2">  1       21 0.94613739E-01 0.40397507E+03</pdfrwt>
<totfact> 0.80207437E+04</totfact>
</mgrwt>
</event>
<event>
 7    0  0.4709932E-002  0.4499460E+03  0.7546771E-02  0.1027738E+00
         21   -1    0    0  502  501  0.00000000000E+00  0.00000000000E+00  0.19284090888E+03  0.19284090888E+03  0.00000000000E+00 0.  1.
         21   -1    0    0  501  502 -0.00000000000E+00 -0.00000000000E+00 -0.26245904054E+03  0.26245904054E+03  0.00000000000E+00 0.  1.
      99926    2    1    2    0    0  0.00000000000E+00 -0.44408920985E-15 -0.69618131656E+02  0.45529994942E+03  0.44994595196E+03 0.  0.
      99925    2    3    3    0    0 -0.98323943158E+02 -0.18817868111E+01  0.10778189791E+01  0.28118342391E+03  0.26342326638E+03 0.  0.
         25    1    3    3    0    0  0.98323943158E+02  0.18817868111E+01 -0.70695950635E+02  0.17411652551E+03  0.12509000000E+03 0.  0.
         25    1    4    4    0    0 -0.64428000167E+01  0.90924574973E+01  0.57166891131E+00  0.12558669261E+03  0.12509000000E+03 0.  0.
         25    1    4    4    0    0 -0.91881143142E+02 -0.10974244308E+02  0.50615006778E+00  0.15559673130E+03  0.12509000000E+03 0.  0.
<mgrwt>
<rscale>  2 0.44994595E+03</rscale>
<asrwt>0</asrwt>
<pdfrwt beam="1">  1       21 0.28358957E-01 0.44994595E+03</pdfrwt>
<pdfrwt beam="2">  1       21 0.38596917E-01 0.44994595E+03</pdfrwt>
<totfact> 0.71357353E+04</totfact>
</mgrwt>
</event>
<event>
 7    0  0.4709932E-002  0.4477096E+03  0.7546771E-02  0.1028407E+00
         21   -1    0    0  502  501  0.00000000000E+00  0.00000000000E+00  0.10618512176E+03  0.10618512176E+03  0.00000000000E+00 0. -1.
         21   -1    0    0  501  502 -0.00000000000E+00 -0.00000000000E+00 -0.47192086128E+03  0.47192086128E+03  0.00000000000E+00 0. -1.
      99926    2    1    2    0    0 -0.14210854715E-13  0.00000000000E+00 -0.36573573952E+03  0.57810598304E+03  0.44770961177E+03 0.  0.
      99925    2    3    3    0    0 -0.73918443030E+02 -0.21234996803E+02 -0.32614958823E+03  0.42602234558E+03  0.26307151827E+03 0.  0.
         25    1    3    3    0    0  0.73918443030E+02  0.21234996803E+02 -0.39586151291E+02  0.15208363746E+03  0.12509000000E+03 0.  0.
         25    1    4    4    0    0 -0.43152421158E+02 -0.13854504806E+02 -0.22770970574E+03  0.26372959058E+03  0.12509000000E+03 0.  0.
         25    1    4    4    0    0 -0.30766021872E+02 -0.73804919972E+01 -0.98439882488E+02  0.16229275501E+03  0.12509000000E+03 0.  0.
<mgrwt>
<rscale>  2 0.44770961E+03</rscale>
<asrwt>0</asrwt>
<pdfrwt beam="1">  1       21 0.15615459E-01 0.44770961E+03</pdfrwt>
<pdfrwt beam="2">  1       21 0.69400126E-01 0.44770961E+03</pdfrwt>
<totfact> 0.63635802E+04</totfact>
</mgrwt>
</event>
<event>
 7    0  0.4709932E-002  0.4607136E+03  0.7546771E-02  0.1024574E+00
         21   -1    0    0  502  501  0.00000000000E+00  0.00000000000E+00  0.31329811530E+02  0.31329811530E+02  0.00000000000E+00 0.  1.
         21   -1    0    0  501  502 -0.00000000000E+00 -0.00000000000E+00 -0.16937307247E+04  0.16937307247E+04  0.00000000000E+00 0.  1.
      99926    2    1    2    0    0  0.00000000000E+00  0.00000000000E+00 -0.16624009132E+04  0.17250605363E+04  0.46071363943E+03 0.  0.
      99925    2    3    3    0    0  0.81704578813E+02 -0.78260633059E+02 -0.90897305648E+03  0.95298449838E+03  0.26295830822E+03 0.  0.
         25    1    4    4    0    0  0.60186052846E+02 -0.13286829092E+02 -0.53111663971E+03  0.54911865190E+03  0.12509000000E+03 0.  0.
         25    1    3    3    0    0 -0.81704578813E+02  0.78260633059E+02 -0.75342785672E+03  0.77207603788E+03  0.12509000000E+03 0.  0.
         25    1    4    4    0    0  0.21518525966E+02 -0.64973803967E+02 -0.37785641677E+03  0.40386584648E+03  0.12509000000E+03 0.  0.
<mgrwt>
<rscale>  2 0.46071364E+03</rscale>
<asrwt>0</asrwt>
<pdfrwt beam="1">  1       21 0.46073242E-02 0.46071364E+03</pdfrwt>
<pdfrwt beam="2">  1       21 0.24907810E+00 0.46071364E+03</pdfrwt>
<totfact> 0.17935960E+04</totfact>
</mgrwt>
</event>
<event>
 7    0  0.4709932E-002  0.4622063E+03  0.7546771E-02  0.1024143E+00
         21   -1    0    0  502  501  0.00000000000E+00  0.00000000000E+00  0.20160201104E+04  0.20160201104E+04  0.00000000000E+00 0. -1.
         21   -1    0    0  501  502 -0.00000000000E+00 -0.00000000000E+00 -0.26492134094E+02  0.26492134094E+02  0.00000000000E+00 0. -1.
      99926    2    1    2    0    0  0.00000000000E+00 -0.14210854715E-13  0.19895279763E+04  0.20425122445E+04  0.46220633964E+03 0.  0.
      99925    2    3    3    0    0  0.91539668142E+02 -0.77268073933E+02  0.12620258747E+04  0.12946775823E+04  0.26292749478E+03 0.  0.
         25    1    4    4    0    0  0.65807158294E+02 -0.49537895229E+02  0.51621265773E+03  0.53750125698E+03  0.12509000000E+03 0.  0.
         25    1    3    3    0    0 -0.91539668142E+02  0.77268073933E+02  0.72750210160E+03  0.74783466222E+03  0.12509000000E+03 0.  0.
         25    1    4    4    0    0  0.25732509848E+02 -0.27730178704E+02  0.74581321700E+03  0.75717632532E+03  0.12509000000E+03 0.  0.
<mgrwt>
<rscale>  2 0.46220634E+03</rscale>
<asrwt>0</asrwt>
<pdfrwt beam="1">  1       21 0.29647344E+00 0.46220634E+03</pdfrwt>
<pdfrwt beam="2">  1       21 0.38959035E-02 0.46220634E+03</pdfrwt>
<totfact> 0.12324053E+04</totfact>
</mgrwt>
</event>
<event>
 7    0  0.4709932E-002  0.4425836E+03  0.7546771E-02  0.1029957E+00
         21   -1    0    0  502  501  0.00000000000E+00  0.00000000000E+00  0.26162432138E+03  0.26162432138E+03  0.00000000000E+00 0. -1.
         21   -1    0    0  501  502 -0.00000000000E+00 -0.00000000000E+00 -0.18717704861E+03  0.18717704861E+03  0.00000000000E+00 0. -1.
      99926    2    1    2    0    0 -0.71054273576E-14  0.00000000000E+00  0.74447272770E+02  0.44880137000E+03  0.44258363423E+03 0.  0.
      99925    2    3    3    0    0  0.58473967715E+02  0.23265323708E+02  0.12767497264E+03  0.29899757725E+03  0.26294138582E+03 0.  0.
         25    1    3    3    0    0 -0.58473967715E+02 -0.23265323708E+02 -0.53227699867E+02  0.14980379274E+03  0.12509000000E+03 0.  0.
         25    1    4    4    0    0 -0.10033075369E+02  0.11718937420E+01  0.68895921466E+02  0.14316491201E+03  0.12509000000E+03 0.  0.
         25    1    4    4    0    0  0.68507043084E+02  0.22093429966E+02  0.58779051171E+02  0.15583266524E+03  0.12509000000E+03 0.  0.
<mgrwt>
<rscale>  2 0.44258363E+03</rscale>
<asrwt>0</asrwt>
<pdfrwt beam="1">  1       21 0.38474165E-01 0.44258363E+03</pdfrwt>
<pdfrwt beam="2">  1       21 0.27526036E-01 0.44258363E+03</pdfrwt>
<totfact> 0.76282156E+04</totfact>
</mgrwt>
</event>
<event>
 7    0  0.4709932E-002  0.4605230E+03  0.7546771E-02  0.1024630E+00
         21   -1    0    0  502  501  0.00000000000E+00  0.00000000000E+00  0.76662570659E+03  0.76662570659E+03  0.00000000000E+00 0. -1.
         21   -1    0    0  501  502 -0.00000000000E+00 -0.00000000000E+00 -0.69160674859E+02  0.69160674859E+02  0.00000000000E+00 0. -1.
      99926    2    1    2    0    0  0.00000000000E+00  0.14210854715E-13  0.69746503173E+03  0.83578638145E+03  0.46052296895E+03 0.  0.
      99925    2    3    3    0    0 -0.29260218975E+02 -0.11479859040E+03  0.44429055362E+03  0.52955166553E+03  0.26267088467E+03 0.  0.
         25    1    3    3    0    0  0.29260218975E+02  0.11479859040E+03  0.25317447811E+03  0.30623471593E+03  0.12509000000E+03 0.  0.
         25    1    4    4    0    0  0.96554203231E+01 -0.48525030480E+02  0.15568540388E+03  0.20575072006E+03  0.12509000000E+03 0.  0.
         25    1    4    4    0    0 -0.38915639298E+02 -0.66273559916E+02  0.28860514974E+03  0.32380094547E+03  0.12509000000E+03 0.  0.
<mgrwt>
<rscale>  2 0.46052297E+03</rscale>
<asrwt>0</asrwt>
<pdfrwt beam="1">  1       21 0.11273907E+00 0.46052297E+03</pdfrwt>
<pdfrwt beam="2">  1       21 0.10170688E-01 0.46052297E+03</pdfrwt>
<totfact> 0.44138157E+04</totfact>
</mgrwt>
</event>
<event>
 7    0  0.4709932E-002  0.4791875E+03  0.7546771E-02  0.1019359E+00
         21   -1    0    0  502  501  0.00000000000E+00  0.00000000000E+00  0.13147449055E+03  0.13147449055E+03  0.00000000000E+00 0.  1.
         21   -1    0    0  501  502 -0.00000000000E+00 -0.00000000000E+00 -0.43662587707E+03  0.43662587707E+03  0.00000000000E+00 0.  1.
      99926    2    1    2    0    0  0.00000000000E+00  0.00000000000E+00 -0.30515138651E+03  0.56810036762E+03  0.47918749879E+03 0.  0.
      99925    2    3    3    0    0  0.12038412988E+03 -0.50812142954E+02 -0.15002666187E+03  0.32980349208E+03  0.26303636919E+03 0.  0.
         25    1    4    4    0    0  0.65552154985E+02 -0.10219220596E+02 -0.32923291395E+02  0.14537182915E+03  0.12509000000E+03 0.  0.
         25    1    4    4    0    0  0.54831974892E+02 -0.40592922357E+02 -0.11710337048E+03  0.18443166294E+03  0.12509000000E+03 0.  0.
         25    1    3    3    0    0 -0.12038412988E+03  0.50812142954E+02 -0.15512472464E+03  0.23829687554E+03  0.12509000000E+03 0.  0.
<mgrwt>
<rscale>  2 0.47918750E+03</rscale>
<asrwt>0</asrwt>
<pdfrwt beam="1">  1       21 0.19334484E-01 0.47918750E+03</pdfrwt>
<pdfrwt beam="2">  1       21 0.64209687E-01 0.47918750E+03</pdfrwt>
<totfact> 0.50339590E+04</totfact>
</mgrwt>
</event>
<event>
 7    0  0.4709932E-002  0.4475204E+03  0.7546771E-02  0.1028464E+00
         21   -1    0    0  502  501  0.00000000000E+00  0.00000000000E+00  0.51313905025E+02  0.51313905025E+02  0.00000000000E+00 0.  1.
         21   -1    0    0  501  502 -0.00000000000E+00 -0.00000000000E+00 -0.97573212693E+03  0.97573212693E+03  0.00000000000E+00 0.  1.
      99926    2    1    2    0    0  0.00000000000E+00 -0.71054273576E-14 -0.92441822191E+03  0.10270460320E+04  0.44752039368E+03 0.  0.
      99925    2    3    3    0    0 -0.85001342707E+02 -0.48495522823E+02 -0.67945124486E+03  0.73509848198E+03  0.26294246531E+03 0.  0.
         25    1    3    3    0    0  0.85001342707E+02  0.48495522823E+02 -0.24496697704E+03  0.29194754998E+03  0.12509000000E+03 0.  0.
         25    1    4    4    0    0 -0.41850975232E+02 -0.53410454440E+02 -0.42601397117E+03  0.44915430812E+03  0.12509000000E+03 0.  0.
         25    1    4    4    0    0 -0.43150367475E+02  0.49149316175E+01 -0.25343727369E+03  0.28594417385E+03  0.12509000000E+03 0.  0.
<mgrwt>
<rscale>  2 0.44752039E+03</rscale>
<asrwt>0</asrwt>
<pdfrwt beam="1">  1       21 0.75461630E-02 0.44752039E+03</pdfrwt>
<pdfrwt beam="2">  1       21 0.14349001E+00 0.44752039E+03</pdfrwt>
<totfact> 0.40441525E+04</totfact>
</mgrwt>
</event>
<event>
 7    0  0.4709932E-002  0.4482721E+03  0.7546771E-02  0.1028239E+00
         21   -1    0    0  502  501  0.00000000000E+00  0.00000000000E+00  0.42325025304E+03  0.42325025304E+03  0.00000000000E+00 0. -1.
         21   -1    0    0  501  502 -0.00000000000E+00 -0.00000000000E+00 -0.11869329463E+03  0.11869329463E+03  0.00000000000E+00 0. -1.
      99926    2    1    2    0    0  0.00000000000E+00  0.31086244690E-14  0.30455695841E+03  0.54194354767E+03  0.44827209142E+03 0.  0.
      99925    2    3    3    0    0 -0.38164215398E+02  0.12615343862E+01  0.72564615109E+02  0.27562408865E+03  0.26314428755E+03 0.  0.
         25    1    3    3    0    0  0.38164215398E+02 -0.12615343862E+01  0.23199234330E+03  0.26631945902E+03  0.12509000000E+03 0.  0.
         25    1    4    4    0    0 -0.25289610046E+02 -0.33957608868E+02  0.15001907072E+02  0.13291068013E+03  0.12509000000E+03 0.  0.
         25    1    4    4    0    0 -0.12874605353E+02  0.35219143254E+02  0.57562708038E+02  0.14271340852E+03  0.12509000000E+03 0.  0.
<mgrwt>
<rscale>  2 0.44827209E+03</rscale>
<asrwt>0</asrwt>
<pdfrwt beam="1">  1       21 0.62242684E-01 0.44827209E+03</pdfrwt>
<pdfrwt beam="2">  1       21 0.17454896E-01 0.44827209E+03</pdfrwt>
<totfact> 0.65837923E+04</totfact>
</mgrwt>
</event>
<event>
 6    0  0.4709932E-002  0.4613421E+03  0.7546771E-02  0.1024393E+00
         21   -1    0    0  502  501  0.00000000000E+00  0.00000000000E+00  0.69652249494E+02  0.69652249494E+02  0.00000000000E+00 0.  1.
         21   -1    0    0  501  502 -0.00000000000E+00 -0.00000000000E+00 -0.76392551410E+03  0.76392551410E+03  0.00000000000E+00 0.  1.
      99926    2    1    2    0    0  0.00000000000E+00  0.00000000000E+00 -0.69427326461E+03  0.83357776360E+03  0.46134208784E+03 0.  0.
         25    1    3    3    0    0  0.14088275909E+01  0.48837643097E+02 -0.20475329914E+03  0.24486429260E+03  0.12509000000E+03 0.  0.
         25    1    3    3    0    0 -0.97852804651E+02 -0.41852599022E+02 -0.29896000672E+03  0.34110321772E+03  0.12509000000E+03 0.  0.
         25    1    3    3    0    0  0.96443977060E+02 -0.69850440749E+01 -0.19055995875E+03  0.24761025328E+03  0.12509000000E+03 0.  0.
<mgrwt>
<rscale>  2 0.46134209E+03</rscale>
<asrwt>0</asrwt>
<pdfrwt beam="1">  1       21 0.10242978E-01 0.46134209E+03</pdfrwt>
<pdfrwt beam="2">  1       21 0.11234198E+00 0.46134209E+03</pdfrwt>
<totfact> 0.43954852E+04</totfact>
</mgrwt>
</event>
<event>
 7    0  0.4709932E-002  0.4551196E+03  0.7546771E-02  0.1026206E+00
         21   -1    0    0  502  501  0.00000000000E+00  0.00000000000E+00  0.92109217989E+02  0.92109217989E+02  0.00000000000E+00 0. -1.
         21   -1    0    0  501  502 -0.00000000000E+00 -0.00000000000E+00 -0.56219638328E+03  0.56219638328E+03  0.00000000000E+00 0. -1.
      99926    2    1    2    0    0 -0.71054273576E-14  0.00000000000E+00 -0.47008716529E+03  0.65430560127E+03  0.45511962920E+03 0.  0.
      99925    2    3    3    0    0  0.49835587335E+02  0.80569897281E+02 -0.38490483676E+03  0.47575972115E+03  0.26309786163E+03 0.  0.
         25    1    3    3    0    0 -0.49835587335E+02 -0.80569897281E+02 -0.85182328526E+02  0.17854588011E+03  0.12509000000E+03 0.  0.
         25    1    4    4    0    0 -0.19761781505E+01  0.70821735840E+01 -0.16218562343E+03  0.20495303611E+03  0.12509000000E+03 0.  0.
         25    1    4    4    0    0  0.51811765486E+02  0.73487723697E+02 -0.22271921334E+03  0.27080668505E+03  0.12509000000E+03 0.  0.
<mgrwt>
<rscale>  2 0.45511963E+03</rscale>
<asrwt>0</asrwt>
<pdfrwt beam="1">  1       21 0.13545474E-01 0.45511963E+03</pdfrwt>
<pdfrwt beam="2">  1       21 0.82675937E-01 0.45511963E+03</pdfrwt>
<totfact> 0.55401832E+04</totfact>
</mgrwt>
</event>
<event>
 7    0  0.4709932E-002  0.4491877E+03  0.7546771E-02  0.1027965E+00
         21   -1    0    0  502  501  0.00000000000E+00  0.00000000000E+00  0.77977061760E+02  0.77977061760E+02  0.00000000000E+00 0.  1.
         21   -1    0    0  501  502 -0.00000000000E+00 -0.00000000000E+00 -0.64688759642E+03  0.64688759642E+03  0.00000000000E+00 0.  1.
      99926    2    1    2    0    0  0.00000000000E+00  0.00000000000E+00 -0.56891053466E+03  0.72486465819E+03  0.44918768486E+03 0.  0.
      99925    2    3    3    0    0  0.72774779649E+02  0.45096929712E+02 -0.46512968045E+03  0.54115870993E+03  0.26301564227E+03 0.  0.
         25    1    4    4    0    0  0.24964581655E+02  0.56319501199E+02 -0.19852659672E+03  0.24260138965E+03  0.12509000000E+03 0.  0.
         25    1    3    3    0    0 -0.72774779649E+02 -0.45096929712E+02 -0.10378085422E+03  0.18370594826E+03  0.12509000000E+03 0.  0.
         25    1    4    4    0    0  0.47810197994E+02 -0.11222571487E+02 -0.26660308372E+03  0.29855732028E+03  0.12509000000E+03 0.  0.
<mgrwt>
<rscale>  2 0.44918768E+03</rscale>
<asrwt>0</asrwt>
<pdfrwt beam="1">  1       21 0.11467215E-01 0.44918768E+03</pdfrwt>
<pdfrwt beam="2">  1       21 0.95130531E-01 0.44918768E+03</pdfrwt>
<totfact> 0.54000102E+04</totfact>
</mgrwt>
</event>
<event>
 7    0  0.4709932E-002  0.4524983E+03  0.7546771E-02  0.1026980E+00
         21   -1    0    0  502  501  0.00000000000E+00  0.00000000000E+00  0.14731346165E+03  0.14731346165E+03  0.00000000000E+00 0. -1.
         21   -1    0    0  501  502 -0.00000000000E+00 -0.00000000000E+00 -0.34748132776E+03  0.34748132776E+03  0.00000000000E+00 0. -1.
      99926    2    1    2    0    0  0.71054273576E-14  0.00000000000E+00 -0.20016786611E+03  0.49479478941E+03  0.45249829724E+03 0.  0.
      99925    2    3    3    0    0  0.42645591245E+02 -0.88858919815E+02 -0.71167439294E+02  0.28984803461E+03  0.26312074162E+03 0.  0.
         25    1    3    3    0    0 -0.42645591245E+02  0.88858919815E+02 -0.12900042682E+03  0.20494675480E+03  0.12509000000E+03 0.  0.
         25    1    4    4    0    0  0.62721059211E+01 -0.81141533861E+02 -0.51525755560E+02  0.15787874910E+03  0.12509000000E+03 0.  0.
         25    1    4    4    0    0  0.36373485324E+02 -0.77173859543E+01 -0.19641683734E+02  0.13196928552E+03  0.12509000000E+03 0.  0.
<mgrwt>
<rscale>  2 0.45249830E+03</rscale>
<asrwt>0</asrwt>
<pdfrwt beam="1">  1       21 0.21663744E-01 0.45249830E+03</pdfrwt>
<pdfrwt beam="2">  1       21 0.51100195E-01 0.45249830E+03</pdfrwt>
<totfact> 0.66957817E+04</totfact>
</mgrwt>
</event>
<event>
 7    0  0.4709932E-002  0.4562085E+03  0.7546771E-02  0.1025887E+00
         21   -1    0    0  502  501  0.00000000000E+00  0.00000000000E+00  0.70124142931E+02  0.70124142931E+02  0.00000000000E+00 0. -1.
         21   -1    0    0  501  502 -0.00000000000E+00 -0.00000000000E+00 -0.74199183086E+03  0.74199183086E+03  0.00000000000E+00 0. -1.
      99926    2    1    2    0    0 -0.71054273576E-14  0.00000000000E+00 -0.67186768793E+03  0.81211597379E+03  0.45620846639E+03 0.  0.
      99925    2    3    3    0    0 -0.62286811554E+02  0.81163165109E+02 -0.51303101267E+03  0.58552448284E+03  0.26300379043E+03 0.  0.
         25    1    4    4    0    0  0.53132770543E+01  0.55755494427E+02 -0.27051359507E+03  0.30325240195E+03  0.12509000000E+03 0.  0.
         25    1    3    3    0    0  0.62286811554E+02 -0.81163165109E+02 -0.15883667526E+03  0.22659149095E+03  0.12509000000E+03 0.  0.
         25    1    4    4    0    0 -0.67600088608E+02  0.25407670681E+02 -0.24251741760E+03  0.28227208088E+03  0.12509000000E+03 0.  0.
<mgrwt>
<rscale>  2 0.45620847E+03</rscale>
<asrwt>0</asrwt>
<pdfrwt beam="1">  1       21 0.10312374E-01 0.45620847E+03</pdfrwt>
<pdfrwt beam="2">  1       21 0.10911645E+00 0.45620847E+03</pdfrwt>
<totfact> 0.46739544E+04</totfact>
</mgrwt>
</event>
<event>
 7    0  0.4709932E-002  0.4529453E+03  0.7546771E-02  0.1026847E+00
         21   -1    0    0  502  501  0.00000000000E+00  0.00000000000E+00  0.32332566250E+03  0.32332566250E+03  0.00000000000E+00 0.  1.
         21   -1    0    0  501  502 -0.00000000000E+00 -0.00000000000E+00 -0.15863219064E+03  0.15863219064E+03  0.00000000000E+00 0.  1.
      99926    2    1    2    0    0  0.00000000000E+00 -0.26645352591E-14  0.16469347185E+03  0.48195785314E+03  0.45294528646E+03 0.  0.
      99925    2    3    3    0    0  0.61631472927E+02  0.70052526797E+01  0.20142583074E+03  0.33758234860E+03  0.26370810525E+03 0.  0.
         25    1    3    3    0    0 -0.61631472927E+02 -0.70052526797E+01 -0.36732358892E+02  0.14437550454E+03  0.12509000000E+03 0.  0.
         25    1    4    4    0    0  0.33949178900E+01  0.19224749528E+02  0.13102069065E+03  0.18219507661E+03  0.12509000000E+03 0.  0.
         25    1    4    4    0    0  0.58236555037E+02 -0.12219496849E+02  0.70405140093E+02  0.15538727199E+03  0.12509000000E+03 0.  0.
<mgrwt>
<rscale>  2 0.45294529E+03</rscale>
<asrwt>0</asrwt>
<pdfrwt beam="1">  1       21 0.47547892E-01 0.45294529E+03</pdfrwt>
<pdfrwt beam="2">  1       21 0.23328263E-01 0.45294529E+03</pdfrwt>
<totfact> 0.67654625E+04</totfact>
</mgrwt>
</event>
<event>
 7    0  0.4709932E-002  0.4516904E+03  0.7546771E-02  0.1027219E+00
         21   -1    0    0  502  501  0.00000000000E+00  0.00000000000E+00  0.21725240144E+03  0.21725240144E+03  0.00000000000E+00 0.  1.
         21   -1    0    0  501  502 -0.00000000000E+00 -0.00000000000E+00 -0.23477782796E+03  0.23477782796E+03  0.00000000000E+00 0.  1.
      99926    2    1    2    0    0  0.00000000000E+00  0.00000000000E+00 -0.17525426524E+02  0.45203022940E+03  0.45169036708E+03 0.  0.
      99925    2    3    3    0    0 -0.89919910066E+02  0.55342776760E+02 -0.42093334990E+02  0.28650227589E+03  0.26298914821E+03 0.  0.
         25    1    4    4    0    0 -0.50694296338E+02  0.29742568963E+02 -0.61955720728E+02  0.15146138624E+03  0.12509000000E+03 0.  0.
         25    1    3    3    0    0  0.89919910066E+02 -0.55342776760E+02  0.24567908466E+02  0.16552795351E+03  0.12509000000E+03 0.  0.
         25    1    4    4    0    0 -0.39225613728E+02  0.25600207798E+02  0.19862385739E+02  0.13504088966E+03  0.12509000000E+03 0.  0.
<mgrwt>
<rscale>  2 0.45169037E+03</rscale>
<asrwt>0</asrwt>
<pdfrwt beam="1">  1       21 0.31948882E-01 0.45169037E+03</pdfrwt>
<pdfrwt beam="2">  1       21 0.34526151E-01 0.45169037E+03</pdfrwt>
<totfact> 0.70610201E+04</totfact>
</mgrwt>
</event>
<event>
 7    0  0.4709932E-002  0.4439277E+03  0.7546771E-02  0.1029548E+00
         21   -1    0    0  502  501  0.00000000000E+00  0.00000000000E+00  0.26828866581E+03  0.26828866581E+03  0.00000000000E+00 0. -1.
         21   -1    0    0  501  502 -0.00000000000E+00 -0.00000000000E+00 -0.18363786669E+03  0.18363786669E+03  0.00000000000E+00 0. -1.
      99926    2    1    2    0    0 -0.14210854715E-13  0.00000000000E+00  0.84650799119E+02  0.45192653249E+03  0.44392773396E+03 0.  0.
      99925    2    3    3    0    0  0.72310524995E+02  0.51344587687E+02  0.10556582555E+03  0.29716857586E+03  0.26324881813E+03 0.  0.
         25    1    3    3    0    0 -0.72310524995E+02 -0.51344587687E+02 -0.20915026433E+02  0.15475795663E+03  0.12509000000E+03 0.  0.
         25    1    4    4    0    0  0.43034465204E+02 -0.17553059155E+00  0.18313294824E+02  0.13354729826E+03  0.12509000000E+03 0.  0.
         25    1    4    4    0    0  0.29276059791E+02  0.51520118278E+02  0.87252530728E+02  0.16362127760E+03  0.12509000000E+03 0.  0.
<mgrwt>
<rscale>  2 0.44392773E+03</rscale>
<asrwt>0</asrwt>
<pdfrwt beam="1">  1       21 0.39454216E-01 0.44392773E+03</pdfrwt>
<pdfrwt beam="2">  1       21 0.27005569E-01 0.44392773E+03</pdfrwt>
<totfact> 0.75194704E+04</totfact>
</mgrwt>
</event>
<event>
 7    0  0.4709932E-002  0.4469482E+03  0.7546771E-02  0.1028636E+00
         21   -1    0    0  502  501  0.00000000000E+00  0.00000000000E+00  0.20588766740E+04  0.20588766740E+04  0.00000000000E+00 0.  1.
         21   -1    0    0  501  502 -0.00000000000E+00 -0.00000000000E+00 -0.24256276017E+02  0.24256276017E+02  0.00000000000E+00 0.  1.
      99926    2    1    2    0    0  0.00000000000E+00  0.17763568394E-14  0.20346203980E+04  0.20831329500E+04  0.44694823364E+03 0.  0.
      99925    2    3    3    0    0  0.10464251383E+03 -0.13529223284E+02  0.12910306161E+04  0.13217484431E+04  0.26291785693E+03 0.  0.
         25    1    4    4    0    0  0.53490836109E+02 -0.46479224970E+02  0.61976400961E+03  0.63622049921E+03  0.12509000000E+03 0.  0.
         25    1    4    4    0    0  0.51151677716E+02  0.32950001686E+02  0.67126660653E+03  0.68552794392E+03  0.12509000000E+03 0.  0.
         25    1    3    3    0    0 -0.10464251383E+03  0.13529223284E+02  0.74358978184E+03  0.76138450689E+03  0.12509000000E+03 0.  0.
<mgrwt>
<rscale>  2 0.44694823E+03</rscale>
<asrwt>0</asrwt>
<pdfrwt beam="1">  1       21 0.30277586E+00 0.44694823E+03</pdfrwt>
<pdfrwt beam="2">  1       21 0.35671008E-02 0.44694823E+03</pdfrwt>
<totfact> 0.13206194E+04</totfact>
</mgrwt>
</event>
<event>
 7    0  0.4709932E-002  0.4583817E+03  0.7546771E-02  0.1025252E+00
         21   -1    0    0  502  501  0.00000000000E+00  0.00000000000E+00  0.11773531219E+03  0.11773531219E+03  0.00000000000E+00 0.  1.
         21   -1    0    0  501  502 -0.00000000000E+00 -0.00000000000E+00 -0.44615708363E+03  0.44615708363E+03  0.00000000000E+00 0.  1.
      99926    2    1    2    0    0  0.14210854715E-13  0.14210854715E-13 -0.32842177144E+03  0.56389239582E+03  0.45838169041E+03 0.  0.
      99925    2    3    3    0    0  0.57035185623E+02  0.70775927264E+02 -0.11683944655E+03  0.30182974570E+03  0.26303515894E+03 0.  0.
         25    1    4    4    0    0  0.66776023110E+02  0.46464762193E+02 -0.77305049915E+02  0.16805234372E+03  0.12509000000E+03 0.  0.
         25    1    4    4    0    0 -0.97408374867E+01  0.24311165071E+02 -0.39534396631E+02  0.13377740197E+03  0.12509000000E+03 0.  0.
         25    1    3    3    0    0 -0.57035185623E+02 -0.70775927264E+02 -0.21158232490E+03  0.26206265012E+03  0.12509000000E+03 0.  0.
<mgrwt>
<rscale>  2 0.45838169E+03</rscale>
<asrwt>0</asrwt>
<pdfrwt beam="1">  1       21 0.17314016E-01 0.45838169E+03</pdfrwt>
<pdfrwt beam="2">  1       21 0.65611336E-01 0.45838169E+03</pdfrwt>
<totfact> 0.59354211E+04</totfact>
</mgrwt>
</event>
<event>
 7    0  0.4709932E-002  0.4494944E+03  0.7546771E-02  0.1027873E+00
         21   -1    0    0  502  501  0.00000000000E+00  0.00000000000E+00  0.88387905166E+02  0.88387905166E+02  0.00000000000E+00 0. -1.
         21   -1    0    0  501  502 -0.00000000000E+00 -0.00000000000E+00 -0.57147311750E+03  0.57147311750E+03  0.00000000000E+00 0. -1.
      99926    2    1    2    0    0  0.00000000000E+00  0.00000000000E+00 -0.48308521233E+03  0.65986102266E+03  0.44949443473E+03 0.  0.
      99925    2    3    3    0    0 -0.10184363552E+03  0.35378126712E+02 -0.31404448550E+03  0.42354341144E+03  0.26294741785E+03 0.  0.
         25    1    4    4    0    0 -0.72691477956E+02  0.97743537138E+01 -0.11406437153E+03  0.18449330045E+03  0.12509000000E+03 0.  0.
         25    1    3    3    0    0  0.10184363552E+03 -0.35378126712E+02 -0.16904072684E+03  0.23631761122E+03  0.12509000000E+03 0.  0.
         25    1    4    4    0    0 -0.29152157565E+02  0.25603772998E+02 -0.19998011397E+03  0.23905011099E+03  0.12509000000E+03 0.  0.
<mgrwt>
<rscale>  2 0.44949443E+03</rscale>
<asrwt>0</asrwt>
<pdfrwt beam="1">  1       21 0.12998221E-01 0.44949443E+03</pdfrwt>
<pdfrwt beam="2">  1       21 0.84040166E-01 0.44949443E+03</pdfrwt>
<totfact> 0.57596512E+04</totfact>
</mgrwt>
</event>
<event>
 7    0  0.4709932E-002  0.4545899E+03  0.7546771E-02  0.1026362E+00
         21   -1    0    0  502  501  0.00000000000E+00  0.00000000000E+00  0.32994785066E+03  0.32994785066E+03  0.00000000000E+00 0.  1.
         21   -1    0    0  501  502 -0.00000000000E+00 -0.00000000000E+00 -0.15657929837E+03  0.15657929837E+03  0.00000000000E+00 0.  1.
      99926    2    1    2    0    0  0.00000000000E+00  0.00000000000E+00  0.17336855229E+03  0.48652714903E+03  0.45458993809E+03 0.  0.
      99925    2    3    3    0    0  0.28202100874E+02 -0.77073481039E+02  0.19198009407E+03  0.33576383267E+03  0.26295496732E+03 0.  0.
         25    1    3    3    0    0 -0.28202100874E+02  0.77073481039E+02 -0.18611541772E+02  0.15076331636E+03  0.12509000000E+03 0.  0.
         25    1    4    4    0    0  0.16939725396E+02 -0.56758051991E+01  0.12038368264E+03  0.17452480685E+03  0.12509000000E+03 0.  0.
         25    1    4    4    0    0  0.11262375478E+02 -0.71397675840E+02  0.71596411431E+02  0.16123902582E+03  0.12509000000E+03 0.  0.
<mgrwt>
<rscale>  2 0.45458994E+03</rscale>
<asrwt>0</asrwt>
<pdfrwt beam="1">  1       21 0.48521743E-01 0.45458994E+03</pdfrwt>
<pdfrwt beam="2">  1       21 0.23026367E-01 0.45458994E+03</pdfrwt>
<totfact> 0.66443988E+04</totfact>
</mgrwt>
</event>
<event>
 7    0  0.4709932E-002  0.4567647E+03  0.7546771E-02  0.1025724E+00
         21   -1    0    0  502  501  0.00000000000E+00  0.00000000000E+00  0.12266166644E+04  0.12266166644E+04  0.00000000000E+00 0. -1.
         21   -1    0    0  501  502 -0.00000000000E+00 -0.00000000000E+00 -0.42522245166E+02  0.42522245166E+02  0.00000000000E+00 0. -1.
      99926    2    1    2    0    0  0.00000000000E+00 -0.35527136788E-14  0.11840944193E+04  0.12691389096E+04  0.45676468572E+03 0.  0.
      99925    2    3    3    0    0  0.10874225672E+03  0.12788513425E+02  0.64793697314E+03  0.70780056278E+03  0.26300359510E+03 0.  0.
         25    1    4    4    0    0  0.60620001403E+02 -0.30494110225E+02  0.28666334831E+03  0.32004383870E+03  0.12509000000E+03 0.  0.
         25    1    4    4    0    0  0.48122255319E+02  0.43282623650E+02  0.36127362484E+03  0.38775672408E+03  0.12509000000E+03 0.  0.
         25    1    3    3    0    0 -0.10874225672E+03 -0.12788513425E+02  0.53615744611E+03  0.56133834680E+03  0.12509000000E+03 0.  0.
<mgrwt>
<rscale>  2 0.45676469E+03</rscale>
<asrwt>0</asrwt>
<pdfrwt beam="1">  1       21 0.18038478E+00 0.45676469E+03</pdfrwt>
<pdfrwt beam="2">  1       21 0.62532721E-02 0.45676469E+03</pdfrwt>
<totfact> 0.29615466E+04</totfact>
</mgrwt>
</event>
<event>
 7    0  0.4709932E-002  0.4584619E+03  0.7546771E-02  0.1025228E+00
         21   -1    0    0  502  501  0.00000000000E+00  0.00000000000E+00  0.12759346539E+03  0.12759346539E+03  0.00000000000E+00 0.  1.
         21   -1    0    0  501  502 -0.00000000000E+00 -0.00000000000E+00 -0.41183012616E+03  0.41183012616E+03  0.00000000000E+00 0.  1.
      99926    2    1    2    0    0 -0.35527136788E-14  0.00000000000E+00 -0.28423666077E+03  0.53942359155E+03  0.45846191967E+03 0.  0.
      99925    2    3    3    0    0 -0.23764027409E+02 -0.55263313620E+02 -0.61153373508E+02  0.27668337006E+03  0.26304978492E+03 0.  0.
         25    1    4    4    0    0  0.27080798406E+02 -0.35536627593E+02 -0.38985504774E+02  0.13843265231E+03  0.12509000000E+03 0.  0.
         25    1    4    4    0    0 -0.50844825815E+02 -0.19726686027E+02 -0.22167868734E+02  0.13825071775E+03  0.12509000000E+03 0.  0.
         25    1    3    3    0    0  0.23764027409E+02  0.55263313620E+02 -0.22308328727E+03  0.26274022149E+03  0.12509000000E+03 0.  0.
<mgrwt>
<rscale>  2 0.45846192E+03</rscale>
<asrwt>0</asrwt>
<pdfrwt beam="1">  1       21 0.18763745E-01 0.45846192E+03</pdfrwt>
<pdfrwt beam="2">  1       21 0.60563252E-01 0.45846192E+03</pdfrwt>
<totfact> 0.60885372E+04</totfact>
</mgrwt>
</event>
<event>
 7    0  0.4709932E-002  0.4493942E+03  0.7546771E-02  0.1027903E+00
         21   -1    0    0  502  501  0.00000000000E+00  0.00000000000E+00  0.13527777820E+03  0.13527777820E+03  0.00000000000E+00 0.  1.
         21   -1    0    0  501  502 -0.00000000000E+00 -0.00000000000E+00 -0.37322300529E+03  0.37322300529E+03  0.00000000000E+00 0.  1.
      99926    2    1    2    0    0  0.14210854715E-13 -0.35527136788E-14 -0.23794522709E+03  0.50850078350E+03  0.44939416520E+03 0.  0.
      99925    2    3    3    0    0  0.92341278170E+02 -0.26834382393E+02 -0.95119736534E+02  0.29567779464E+03  0.26292698270E+03 0.  0.
         25    1    3    3    0    0 -0.92341278170E+02  0.26834382393E+02 -0.14282549056E+03  0.21282298886E+03  0.12509000000E+03 0.  0.
         25    1    4    4    0    0  0.73538992515E+02  0.12013339068E+02 -0.32037163144E+02  0.14908451180E+03  0.12509000000E+03 0.  0.
         25    1    4    4    0    0  0.18802285655E+02 -0.38847721461E+02 -0.63082573390E+02  0.14659328284E+03  0.12509000000E+03 0.  0.
<mgrwt>
<rscale>  2 0.44939417E+03</rscale>
<asrwt>0</asrwt>
<pdfrwt beam="1">  1       21 0.19893791E-01 0.44939417E+03</pdfrwt>
<pdfrwt beam="2">  1       21 0.54885736E-01 0.44939417E+03</pdfrwt>
<totfact> 0.67636744E+04</totfact>
</mgrwt>
</event>
<event>
 7    0  0.4709932E-002  0.4435654E+03  0.7546771E-02  0.1029658E+00
         21   -1    0    0  502  501  0.00000000000E+00  0.00000000000E+00  0.45012381424E+03  0.45012381424E+03  0.00000000000E+00 0. -1.
         21   -1    0    0  501  502 -0.00000000000E+00 -0.00000000000E+00 -0.10927563487E+03  0.10927563487E+03  0.00000000000E+00 0. -1.
      99926    2    1    2    0    0  0.35527136788E-14  0.00000000000E+00  0.34084817937E+03  0.55939944911E+03  0.44356539797E+03 0.  0.
      99925    2    3    3    0    0  0.29174546473E+02  0.43204796250E+02  0.32743154376E+03  0.42321823604E+03  0.26302937267E+03 0.  0.
         25    1    3    3    0    0 -0.29174546473E+02 -0.43204796250E+02  0.13416635616E+02  0.13618121307E+03  0.12509000000E+03 0.  0.
         25    1    4    4    0    0  0.51385483259E+02  0.44142204695E+01  0.16643141120E+03  0.21449213498E+03  0.12509000000E+03 0.  0.
         25    1    4    4    0    0 -0.22210936786E+02  0.38790575780E+02  0.16100013256E+03  0.20872610106E+03  0.12509000000E+03 0.  0.
<mgrwt>
<rscale>  2 0.44356540E+03</rscale>
<asrwt>0</asrwt>
<pdfrwt beam="1">  1       21 0.66194678E-01 0.44356540E+03</pdfrwt>
<pdfrwt beam="2">  1       21 0.16069946E-01 0.44356540E+03</pdfrwt>
<totfact> 0.67117225E+04</totfact>
</mgrwt>
</event>
<event>
 7    0  0.4709932E-002  0.4552420E+03  0.7546771E-02  0.1026170E+00
         21   -1    0    0  502  501  0.00000000000E+00  0.00000000000E+00  0.70371895317E+02  0.70371895317E+02  0.00000000000E+00 0.  1.
         21   -1    0    0  501  502 -0.00000000000E+00 -0.00000000000E+00 -0.73625002504E+03  0.73625002504E+03  0.00000000000E+00 0.  1.
      99926    2    1    2    0    0  0.71054273576E-14  0.00000000000E+00 -0.66587812972E+03  0.80662192036E+03  0.45524195628E+03 0.  0.
      99925    2    3    3    0    0  0.38988202393E+02 -0.73281861535E+02 -0.28519816882E+03  0.39740919830E+03  0.26401849224E+03 0.  0.
         25    1    3    3    0    0 -0.38988202393E+02  0.73281861535E+02 -0.38067996090E+03  0.40921272205E+03  0.12509000000E+03 0.  0.
         25    1    4    4    0    0  0.23207006723E+01 -0.75396410169E+01 -0.17121753250E+03  0.21219138384E+03  0.12509000000E+03 0.  0.
         25    1    4    4    0    0  0.36667501721E+02 -0.65742220518E+02 -0.11398063632E+03  0.18521781447E+03  0.12509000000E+03 0.  0.
<mgrwt>
<rscale>  2 0.45524196E+03</rscale>
<asrwt>0</asrwt>
<pdfrwt beam="1">  1       21 0.10348809E-01 0.45524196E+03</pdfrwt>
<pdfrwt beam="2">  1       21 0.10827206E+00 0.45524196E+03</pdfrwt>
<totfact> 0.47356200E+04</totfact>
</mgrwt>
</event>
<event>
 7    0  0.4709932E-002  0.4534238E+03  0.7546771E-02  0.1026706E+00
         21   -1    0    0  502  501  0.00000000000E+00  0.00000000000E+00  0.67987919032E+03  0.67987919032E+03  0.00000000000E+00 0.  1.
         21   -1    0    0  501  502 -0.00000000000E+00 -0.00000000000E+00 -0.75599158579E+02  0.75599158579E+02  0.00000000000E+00 0.  1.
      99926    2    1    2    0    0  0.00000000000E+00 -0.35527136788E-14  0.60428003174E+03  0.75547834890E+03  0.45342384024E+03 0.  0.
      99925    2    3    3    0    0  0.10678503749E+03 -0.21012539619E+02  0.33602627419E+03  0.44011798742E+03  0.26257496996E+03 0.  0.
         25    1    3    3    0    0 -0.10678503749E+03  0.21012539619E+02  0.26825375756E+03  0.31536036148E+03  0.12509000000E+03 0.  0.
         25    1    4    4    0    0  0.26999185226E+02 -0.40855528291E+02  0.16743427522E+03  0.21466223425E+03  0.12509000000E+03 0.  0.
         25    1    4    4    0    0  0.79785852262E+02  0.19842988672E+02  0.16859199897E+03  0.22545575317E+03  0.12509000000E+03 0.  0.
<mgrwt>
<rscale>  2 0.45342384E+03</rscale>
<asrwt>0</asrwt>
<pdfrwt beam="1">  1       21 0.99982231E-01 0.45342384E+03</pdfrwt>
<pdfrwt beam="2">  1       21 0.11117524E-01 0.45342384E+03</pdfrwt>
<totfact> 0.50616266E+04</totfact>
</mgrwt>
</event>
<event>
 7    0  0.4709932E-002  0.4540660E+03  0.7546771E-02  0.1026516E+00
         21   -1    0    0  502  501  0.00000000000E+00  0.00000000000E+00  0.32450215548E+03  0.32450215548E+03  0.00000000000E+00 0.  1.
         21   -1    0    0  501  502 -0.00000000000E+00 -0.00000000000E+00 -0.15884018230E+03  0.15884018230E+03  0.00000000000E+00 0.  1.
      99926    2    1    2    0    0  0.00000000000E+00  0.00000000000E+00  0.16566197318E+03  0.48334233778E+03  0.45406599315E+03 0.  0.
      99925    2    3    3    0    0  0.99093893213E+02  0.14877395109E+02  0.15849333614E+03  0.32290595159E+03  0.26288244410E+03 0.  0.
         25    1    4    4    0    0  0.13848842528E+02  0.28817603847E+02  0.78962194851E+02  0.15134325570E+03  0.12509000000E+03 0.  0.
         25    1    4    4    0    0  0.85245050685E+02 -0.13940208738E+02  0.79531141287E+02  0.17156269589E+03  0.12509000000E+03 0.  0.
         25    1    3    3    0    0 -0.99093893213E+02 -0.14877395109E+02  0.71686370438E+01  0.16043638619E+03  0.12509000000E+03 0.  0.
<mgrwt>
<rscale>  2 0.45406599E+03</rscale>
<asrwt>0</asrwt>
<pdfrwt beam="1">  1       21 0.47720905E-01 0.45406599E+03</pdfrwt>
<pdfrwt beam="2">  1       21 0.23358850E-01 0.45406599E+03</pdfrwt>
<totfact> 0.66952634E+04</totfact>
</mgrwt>
</event>
<event>
 7    0  0.4709932E-002  0.4532836E+03  0.7546771E-02  0.1026747E+00
         21   -1    0    0  502  501  0.00000000000E+00  0.00000000000E+00  0.41358532268E+03  0.41358532268E+03  0.00000000000E+00 0. -1.
         21   -1    0    0  501  502 -0.00000000000E+00 -0.00000000000E+00 -0.12419810418E+03  0.12419810418E+03  0.00000000000E+00 0. -1.
      99926    2    1    2    0    0  0.35527136788E-14  0.00000000000E+00  0.28938721850E+03  0.53778342687E+03  0.45328363304E+03 0.  0.
      99925    2    3    3    0    0 -0.16269679172E+02  0.99803068797E+02  0.23834825220E+03  0.36902964415E+03  0.26295937696E+03 0.  0.
         25    1    3    3    0    0  0.16269679172E+02 -0.99803068797E+02  0.51038966298E+02  0.16875378272E+03  0.12509000000E+03 0.  0.
         25    1    4    4    0    0 -0.43965359102E+02  0.30574479686E+02  0.11224392040E+03  0.17639148896E+03  0.12509000000E+03 0.  0.
         25    1    4    4    0    0  0.27695679930E+02  0.69228589112E+02  0.12610433180E+03  0.19263815519E+03  0.12509000000E+03 0.  0.
<mgrwt>
<rscale>  2 0.45328363E+03</rscale>
<asrwt>0</asrwt>
<pdfrwt beam="1">  1       21 0.60821370E-01 0.45328363E+03</pdfrwt>
<pdfrwt beam="2">  1       21 0.18264427E-01 0.45328363E+03</pdfrwt>
<totfact> 0.63539814E+04</totfact>
</mgrwt>
</event>
<event>
 6    0  0.4709932E-002  0.4338591E+03  0.7546771E-02  0.1032648E+00
         21   -1    0    0  502  501  0.00000000000E+00  0.00000000000E+00  0.93353617187E+02  0.93353617187E+02  0.00000000000E+00 0.  1.
         21   -1    0    0  501  502 -0.00000000000E+00 -0.00000000000E+00 -0.50408796232E+03  0.50408796232E+03  0.00000000000E+00 0.  1.
      99926    2    1    2    0    0 -0.14210854715E-13  0.00000000000E+00 -0.41073434513E+03  0.59744157951E+03  0.43385912305E+03 0.  0.
         25    1    3    3    0    0 -0.37411721262E+02 -0.13612157422E+02 -0.10085450737E+03  0.16554173937E+03  0.12509000000E+03 0.  0.
         25    1    3    3    0    0  0.70987155421E+02 -0.71820513583E+01 -0.73782763867E+02  0.16180903078E+03  0.12509000000E+03 0.  0.
         25    1    3    3    0    0 -0.33575434159E+02  0.20794208780E+02 -0.23609707390E+03  0.27009080936E+03  0.12509000000E+03 0.  0.
<mgrwt>
<rscale>  2 0.43385912E+03</rscale>
<asrwt>0</asrwt>
<pdfrwt beam="1">  1       21 0.13728474E-01 0.43385912E+03</pdfrwt>
<pdfrwt beam="2">  1       21 0.74130580E-01 0.43385912E+03</pdfrwt>
<totfact> 0.69781830E+04</totfact>
</mgrwt>
</event>
<event>
 7    0  0.4709932E-002  0.4322280E+03  0.7546771E-02  0.1033158E+00
         21   -1    0    0  502  501  0.00000000000E+00  0.00000000000E+00  0.74301211949E+02  0.74301211949E+02  0.00000000000E+00 0.  1.
         21   -1    0    0  501  502 -0.00000000000E+00 -0.00000000000E+00 -0.62859356658E+03  0.62859356658E+03  0.00000000000E+00 0.  1.
      99926    2    1    2    0    0  0.71054273576E-14  0.00000000000E+00 -0.55429235463E+03  0.70289477853E+03  0.43222801307E+03 0.  0.
      99925    2    3    3    0    0 -0.56197058369E+02 -0.70498067406E+02 -0.36269778809E+03  0.45695967956E+03  0.26293416739E+03 0.  0.
         25    1    4    4    0    0 -0.10412319403E+02 -0.69311339112E+02 -0.21053754270E+03  0.25472738979E+03  0.12509000000E+03 0.  0.
         25    1    4    4    0    0 -0.45784738966E+02 -0.11867282931E+01 -0.15216024539E+03  0.20223228977E+03  0.12509000000E+03 0.  0.
         25    1    3    3    0    0  0.56197058369E+02  0.70498067406E+02 -0.19159456654E+03  0.24593509897E+03  0.12509000000E+03 0.  0.
<mgrwt>
<rscale>  2 0.43222801E+03</rscale>
<asrwt>0</asrwt>
<pdfrwt beam="1">  1       21 0.10926649E-01 0.43222801E+03</pdfrwt>
<pdfrwt beam="2">  1       21 0.92440232E-01 0.43222801E+03</pdfrwt>
<totfact> 0.63358901E+04</totfact>
</mgrwt>
</event>
<event>
 7    0  0.4709932E-002  0.5111292E+03  0.7546771E-02  0.1010914E+00
         21   -1    0    0  502  501  0.00000000000E+00  0.00000000000E+00  0.88046959509E+02  0.88046959509E+02  0.00000000000E+00 0. -1.
         21   -1    0    0  501  502 -0.00000000000E+00 -0.00000000000E+00 -0.74180020365E+03  0.74180020365E+03  0.00000000000E+00 0. -1.
      99926    2    1    2    0    0  0.00000000000E+00  0.00000000000E+00 -0.65375324415E+03  0.82984716316E+03  0.51112915196E+03 0.  0.
      99925    2    3    3    0    0  0.12061044719E+02  0.26938150236E+02 -0.64941125491E+03  0.70124897613E+03  0.26295249719E+03 0.  0.
         25    1    4    4    0    0  0.16304844335E+02  0.41604402214E+02 -0.26018841203E+03  0.29213403103E+03  0.12509000000E+03 0.  0.
         25    1    3    3    0    0 -0.12061044719E+02 -0.26938150236E+02 -0.43419892360E+01  0.12859818703E+03  0.12509000000E+03 0.  0.
         25    1    4    4    0    0 -0.42437996164E+01 -0.14666251977E+02 -0.38922284288E+03  0.40911494510E+03  0.12509000000E+03 0.  0.
<mgrwt>
<rscale>  2 0.51112915E+03</rscale>
<asrwt>0</asrwt>
<pdfrwt beam="1">  1       21 0.12948082E-01 0.51112915E+03</pdfrwt>
<pdfrwt beam="2">  1       21 0.10908827E+00 0.51112915E+03</pdfrwt>
<totfact> 0.30524425E+04</totfact>
</mgrwt>
</event>
<event>
 7    0  0.4709932E-002  0.4636910E+03  0.7546771E-02  0.1023716E+00
         21   -1    0    0  502  501  0.00000000000E+00  0.00000000000E+00  0.12673498664E+03  0.12673498664E+03  0.00000000000E+00 0.  1.
         21   -1    0    0  501  502 -0.00000000000E+00 -0.00000000000E+00 -0.42413177116E+03  0.42413177116E+03  0.00000000000E+00 0.  1.
      99926    2    1    2    0    0  0.00000000000E+00  0.00000000000E+00 -0.29739678452E+03  0.55086675780E+03  0.46369099345E+03 0.  0.
      99925    2    3    3    0    0 -0.11163973717E+03 -0.41956617653E+02 -0.21147803534E+03  0.35785554507E+03  0.26289511792E+03 0.  0.
         25    1    4    4    0    0 -0.34625784363E+02  0.13883808583E+02 -0.81235529050E+02  0.15374792475E+03  0.12509000000E+03 0.  0.
         25    1    4    4    0    0 -0.77013952806E+02 -0.55840426235E+02 -0.13024250629E+03  0.20410762032E+03  0.12509000000E+03 0.  0.
         25    1    3    3    0    0  0.11163973717E+03  0.41956617653E+02 -0.85918749184E+02  0.19301121273E+03  0.12509000000E+03 0.  0.
<mgrwt>
<rscale>  2 0.46369099E+03</rscale>
<asrwt>0</asrwt>
<pdfrwt beam="1">  1       21 0.18637498E-01 0.46369099E+03</pdfrwt>
<pdfrwt beam="2">  1       21 0.62372320E-01 0.46369099E+03</pdfrwt>
<totfact> 0.57735619E+04</totfact>
</mgrwt>
</event>
<event>
 7    0  0.4709932E-002  0.4529916E+03  0.7546771E-02  0.1026834E+00
         21   -1    0    0  502  501  0.00000000000E+00  0.00000000000E+00  0.80996147782E+02  0.80996147782E+02  0.00000000000E+00 0. -1.
         21   -1    0    0  501  502 -0.00000000000E+00 -0.00000000000E+00 -0.63336775165E+03  0.63336775165E+03  0.00000000000E+00 0. -1.
      99926    2    1    2    0    0  0.35527136788E-14  0.00000000000E+00 -0.55237160387E+03  0.71436389943E+03  0.45299160263E+03 0.  0.
      99925    2    3    3    0    0  0.30984919667E+02  0.10372324656E+03 -0.38695758976E+03  0.48042398986E+03  0.26334854593E+03 0.  0.
         25    1    4    4    0    0  0.46616614480E+02  0.32712977084E+02 -0.15622936027E+03  0.20808260073E+03  0.12509000000E+03 0.  0.
         25    1    3    3    0    0 -0.30984919667E+02 -0.10372324656E+03 -0.16541401411E+03  0.23393990957E+03  0.12509000000E+03 0.  0.
         25    1    4    4    0    0 -0.15631694813E+02  0.71010269480E+02 -0.23072822949E+03  0.27234138914E+03  0.12509000000E+03 0.  0.
<mgrwt>
<rscale>  2 0.45299160E+03</rscale>
<asrwt>0</asrwt>
<pdfrwt beam="1">  1       21 0.11911198E-01 0.45299160E+03</pdfrwt>
<pdfrwt beam="2">  1       21 0.93142314E-01 0.45299160E+03</pdfrwt>
<totfact> 0.52961870E+04</totfact>
</mgrwt>
</event>
<event>
 7    0  0.4709932E-002  0.4318072E+03  0.7546771E-02  0.1033291E+00
         21   -1    0    0  502  501  0.00000000000E+00  0.00000000000E+00  0.80208276196E+03  0.80208276196E+03  0.00000000000E+00 0.  1.
         21   -1    0    0  501  502 -0.00000000000E+00 -0.00000000000E+00 -0.58116651960E+02  0.58116651960E+02  0.00000000000E+00 0.  1.
      99926    2    1    2    0    0  0.00000000000E+00  0.00000000000E+00  0.74396611000E+03  0.86019941392E+03  0.43180720105E+03 0.  0.
      99925    2    3    3    0    0 -0.29083142593E+02 -0.51441791493E+02  0.34417323980E+03  0.43714630348E+03  0.26296308591E+03 0.  0.
         25    1    4    4    0    0 -0.39958304849E+01 -0.48962306511E+02  0.22757254765E+03  0.26429159401E+03  0.12509000000E+03 0.  0.
         25    1    4    4    0    0 -0.25087312108E+02 -0.24794849825E+01  0.11660069215E+03  0.17285470947E+03  0.12509000000E+03 0.  0.
         25    1    3    3    0    0  0.29083142593E+02  0.51441791493E+02  0.39979287020E+03  0.42305311045E+03  0.12509000000E+03 0.  0.
<mgrwt>
<rscale>  2 0.43180720E+03</rscale>
<asrwt>0</asrwt>
<pdfrwt beam="1">  1       21 0.11795334E+00 0.43180720E+03</pdfrwt>
<pdfrwt beam="2">  1       21 0.85465670E-02 0.43180720E+03</pdfrwt>
<totfact> 0.54189453E+04</totfact>
</mgrwt>
</event>
<event>
 7    0  0.4709932E-002  0.4756910E+03  0.7546771E-02  0.1020326E+00
         21   -1    0    0  502  501  0.00000000000E+00  0.00000000000E+00  0.19316083789E+03  0.19316083789E+03  0.00000000000E+00 0. -1.
         21   -1    0    0  501  502 -0.00000000000E+00 -0.00000000000E+00 -0.29286721359E+03  0.29286721359E+03  0.00000000000E+00 0. -1.
      99926    2    1    2    0    0  0.00000000000E+00  0.00000000000E+00 -0.99706375705E+02  0.48602805148E+03  0.47569097686E+03 0.  0.
      99925    2    3    3    0    0 -0.54536401310E+02 -0.11839999953E+03 -0.42209059899E+02  0.29643314548E+03  0.26286541432E+03 0.  0.
         25    1    3    3    0    0  0.54536401310E+02  0.11839999953E+03 -0.57497315805E+02  0.18959490600E+03  0.12509000000E+03 0.  0.
         25    1    4    4    0    0 -0.33482708226E+02 -0.75478536330E+02  0.15357188593E+02  0.15067001207E+03  0.12509000000E+03 0.  0.
         25    1    4    4    0    0 -0.21053693084E+02 -0.42921463195E+02 -0.57566248492E+02  0.14576313341E+03  0.12509000000E+03 0.  0.
<mgrwt>
<rscale>  2 0.47569098E+03</rscale>
<asrwt>0</asrwt>
<pdfrwt beam="1">  1       21 0.28406006E-01 0.47569098E+03</pdfrwt>
<pdfrwt beam="2">  1       21 0.43068707E-01 0.47569098E+03</pdfrwt>
<totfact> 0.56412132E+04</totfact>
</mgrwt>
</event>
<event>
 7    0  0.4709932E-002  0.4526517E+03  0.7546771E-02  0.1026934E+00
         21   -1    0    0  502  501  0.00000000000E+00  0.00000000000E+00  0.15237144727E+03  0.15237144727E+03  0.00000000000E+00 0. -1.
         21   -1    0    0  501  502 -0.00000000000E+00 -0.00000000000E+00 -0.33617442210E+03  0.33617442210E+03  0.00000000000E+00 0. -1.
      99926    2    1    2    0    0  0.00000000000E+00 -0.17763568394E-14 -0.18380297483E+03  0.48854586937E+03  0.45265166842E+03 0.  0.
      99925    2    3    3    0    0 -0.10963832367E+03  0.13023355629E+02 -0.12684808184E+03  0.31224630118E+03  0.26309151815E+03 0.  0.
         25    1    4    4    0    0 -0.77835340850E+02 -0.24205756741E+02 -0.49819072619E+02  0.15739665511E+03  0.12509000000E+03 0.  0.
         25    1    4    4    0    0 -0.31802982823E+02  0.37229112370E+02 -0.77029009218E+02  0.15484964606E+03  0.12509000000E+03 0.  0.
         25    1    3    3    0    0  0.10963832367E+03 -0.13023355629E+02 -0.56954892990E+02  0.17629956819E+03  0.12509000000E+03 0.  0.
<mgrwt>
<rscale>  2 0.45265167E+03</rscale>
<asrwt>0</asrwt>
<pdfrwt beam="1">  1       21 0.22407566E-01 0.45265167E+03</pdfrwt>
<pdfrwt beam="2">  1       21 0.49437415E-01 0.45265167E+03</pdfrwt>
<totfact> 0.67329561E+04</totfact>
</mgrwt>
</event>
<event>
 7    0  0.4709932E-002  0.4592322E+03  0.7546771E-02  0.1025004E+00
         21   -1    0    0  502  501  0.00000000000E+00  0.00000000000E+00  0.14143101456E+03  0.14143101456E+03  0.00000000000E+00 0. -1.
         21   -1    0    0  501  502 -0.00000000000E+00 -0.00000000000E+00 -0.37278635771E+03  0.37278635771E+03  0.00000000000E+00 0. -1.
      99926    2    1    2    0    0 -0.35527136788E-14  0.00000000000E+00 -0.23135534316E+03  0.51421737227E+03  0.45923219741E+03 0.  0.
      99925    2    3    3    0    0  0.28852586705E+02  0.81679921688E+02 -0.23324107049E+03  0.36204922372E+03  0.26300981363E+03 0.  0.
         25    1    3    3    0    0 -0.28852586705E+02 -0.81679921688E+02  0.18857273280E+01  0.15216814855E+03  0.12509000000E+03 0.  0.
         25    1    4    4    0    0 -0.14069898494E+02  0.15280748316E+02 -0.13007887084E+03  0.18165760114E+03  0.12509000000E+03 0.  0.
         25    1    4    4    0    0  0.42922485199E+02  0.66399173372E+02 -0.10316219964E+03  0.18039162257E+03  0.12509000000E+03 0.  0.
<mgrwt>
<rscale>  2 0.45923220E+03</rscale>
<asrwt>0</asrwt>
<pdfrwt beam="1">  1       21 0.20798678E-01 0.45923220E+03</pdfrwt>
<pdfrwt beam="2">  1       21 0.54821524E-01 0.45923220E+03</pdfrwt>
<totfact> 0.62168560E+04</totfact>
</mgrwt>
</event>
<event>
 7    0  0.4709932E-002  0.4535536E+03  0.7546771E-02  0.1026668E+00
         21   -1    0    0  502  501  0.00000000000E+00  0.00000000000E+00  0.14832907960E+03  0.14832907960E+03  0.00000000000E+00 0. -1.
         21   -1    0    0  501  502 -0.00000000000E+00 -0.00000000000E+00 -0.34671361727E+03  0.34671361727E+03  0.00000000000E+00 0. -1.
      99926    2    1    2    0    0 -0.71054273576E-14  0.00000000000E+00 -0.19838453767E+03  0.49504269687E+03  0.45355357671E+03 0.  0.
      99925    2    3    3    0    0 -0.53804284733E+02 -0.48004282123E+02 -0.21826633204E+03  0.34929597820E+03  0.26299843446E+03 0.  0.
         25    1    4    4    0    0  0.11025375250E+02 -0.39020610946E+02 -0.10272893459E+03  0.16686793904E+03  0.12509000000E+03 0.  0.
         25    1    4    4    0    0 -0.64829659983E+02 -0.89836711771E+01 -0.11553739745E+03  0.18242803916E+03  0.12509000000E+03 0.  0.
         25    1    3    3    0    0  0.53804284733E+02  0.48004282123E+02  0.19881794370E+02  0.14574671868E+03  0.12509000000E+03 0.  0.
<mgrwt>
<rscale>  2 0.45355358E+03</rscale>
<asrwt>0</asrwt>
<pdfrwt beam="1">  1       21 0.21813100E-01 0.45355358E+03</pdfrwt>
<pdfrwt beam="2">  1       21 0.50987296E-01 0.45355358E+03</pdfrwt>
<totfact> 0.66379269E+04</totfact>
</mgrwt>
</event>
<event>
 7    0  0.4709932E-002  0.4708510E+03  0.7546771E-02  0.1021680E+00
         21   -1    0    0  502  501  0.00000000000E+00  0.00000000000E+00  0.41818317225E+02  0.41818317225E+02  0.00000000000E+00 0.  1.
         21   -1    0    0  501  502 -0.00000000000E+00 -0.00000000000E+00 -0.13253802305E+04  0.13253802305E+04  0.00000000000E+00 0.  1.
      99926    2    1    2    0    0  0.00000000000E+00  0.00000000000E+00 -0.12835619132E+04  0.13671985477E+04  0.47085102069E+03 0.  0.
      99925    2    3    3    0    0 -0.20913872000E+02 -0.39326142134E+02 -0.45065975808E+03  0.52377846038E+03  0.26318381887E+03 0.  0.
         25    1    4    4    0    0 -0.14056531229E+02  0.20126881131E+02 -0.19591056215E+03  0.23373303976E+03  0.12509000000E+03 0.  0.
         25    1    3    3    0    0  0.20913872000E+02  0.39326142134E+02 -0.83290215517E+03  0.84342008731E+03  0.12509000000E+03 0.  0.
         25    1    4    4    0    0 -0.68573407713E+01 -0.59453023265E+02 -0.25474919593E+03  0.29004542063E+03  0.12509000000E+03 0.  0.
<mgrwt>
<rscale>  2 0.47085102E+03</rscale>
<asrwt>0</asrwt>
<pdfrwt beam="1">  1       21 0.61497532E-02 0.47085102E+03</pdfrwt>
<pdfrwt beam="2">  1       21 0.19490884E+00 0.47085102E+03</pdfrwt>
<totfact> 0.24109356E+04</totfact>
</mgrwt>
</event>
<event>
 7    0  0.4709932E-002  0.4532379E+03  0.7546771E-02  0.1026761E+00
         21   -1    0    0  502  501  0.00000000000E+00  0.00000000000E+00  0.20999395360E+03  0.20999395360E+03  0.00000000000E+00 0. -1.
         21   -1    0    0  501  502 -0.00000000000E+00 -0.00000000000E+00 -0.24456012479E+03  0.24456012479E+03  0.00000000000E+00 0. -1.
      99926    2    1    2    0    0  0.71054273576E-14  0.00000000000E+00 -0.34566171185E+02  0.45455407839E+03  0.45323789558E+03 0.  0.
      99925    2    3    3    0    0 -0.54359673412E+02 -0.87294618242E+02  0.21169880313E+02  0.28329596908E+03  0.26312186872E+03 0.  0.
         25    1    4    4    0    0 -0.28783282097E+02 -0.20592589724E+02 -0.24272813027E+02  0.13224677551E+03  0.12509000000E+03 0.  0.
         25    1    4    4    0    0 -0.25576391316E+02 -0.66702028517E+02  0.45442693340E+02  0.15104919357E+03  0.12509000000E+03 0.  0.
         25    1    3    3    0    0  0.54359673412E+02  0.87294618242E+02 -0.55736051498E+02  0.17125810931E+03  0.12509000000E+03 0.  0.
<mgrwt>
<rscale>  2 0.45323790E+03</rscale>
<asrwt>0</asrwt>
<pdfrwt beam="1">  1       21 0.30881464E-01 0.45323790E+03</pdfrwt>
<pdfrwt beam="2">  1       21 0.35964724E-01 0.45323790E+03</pdfrwt>
<totfact> 0.69551221E+04</totfact>
</mgrwt>
</event>
<event>
 7    0  0.4709932E-002  0.4585842E+03  0.7546771E-02  0.1025193E+00
         21   -1    0    0  502  501  0.00000000000E+00  0.00000000000E+00  0.15286614268E+03  0.15286614268E+03  0.00000000000E+00 0.  1.
         21   -1    0    0  501  502 -0.00000000000E+00 -0.00000000000E+00 -0.34392742974E+03  0.34392742974E+03  0.00000000000E+00 0.  1.
      99926    2    1    2    0    0  0.00000000000E+00  0.14210854715E-13 -0.19106128706E+03  0.49679357241E+03  0.45858416695E+03 0.  0.
      99925    2    3    3    0    0 -0.41187531540E+02  0.86177393413E+02 -0.19199827006E+03  0.33940443071E+03  0.26307617906E+03 0.  0.
         25    1    3    3    0    0  0.41187531540E+02 -0.86177393413E+02  0.93698299973E+00  0.15738914171E+03  0.12509000000E+03 0.  0.
         25    1    4    4    0    0 -0.24640176749E+02  0.85240472089E+02 -0.11352539180E+03  0.19081037465E+03  0.12509000000E+03 0.  0.
         25    1    4    4    0    0 -0.16547354790E+02  0.93692132346E+00 -0.78472878264E+02  0.14859405606E+03  0.12509000000E+03 0.  0.
<mgrwt>
<rscale>  2 0.45858417E+03</rscale>
<asrwt>0</asrwt>
<pdfrwt beam="1">  1       21 0.22480316E-01 0.45858417E+03</pdfrwt>
<pdfrwt beam="2">  1       21 0.50577562E-01 0.45858417E+03</pdfrwt>
<totfact> 0.63665654E+04</totfact>
</mgrwt>
</event>
<event>
 7    0  0.4709932E-002  0.4625669E+03  0.7546771E-02  0.1024039E+00
         21   -1    0    0  502  501  0.00000000000E+00  0.00000000000E+00  0.62317402629E+03  0.62317402629E+03  0.00000000000E+00 0. -1.
         21   -1    0    0  501  502 -0.00000000000E+00 -0.00000000000E+00 -0.85838034442E+02  0.85838034442E+02  0.00000000000E+00 0. -1.
      99926    2    1    2    0    0  0.00000000000E+00  0.00000000000E+00  0.53733599185E+03  0.70901206074E+03  0.46256689692E+03 0.  0.
      99925    2    3    3    0    0  0.32650571299E+02  0.11333946814E+03  0.30083597531E+03  0.41662249052E+03  0.26298311871E+03 0.  0.
         25    1    4    4    0    0  0.10848884035E+02  0.97921671126E+02  0.18465256761E+03  0.24382459020E+03  0.12509000000E+03 0.  0.
         25    1    3    3    0    0 -0.32650571299E+02 -0.11333946814E+03  0.23650001654E+03  0.29238957021E+03  0.12509000000E+03 0.  0.
         25    1    4    4    0    0  0.21801687264E+02  0.15417797010E+02  0.11618340770E+03  0.17279790032E+03  0.12509000000E+03 0.  0.
<mgrwt>
<rscale>  2 0.46256690E+03</rscale>
<asrwt>0</asrwt>
<pdfrwt beam="1">  1       21 0.91643237E-01 0.46256690E+03</pdfrwt>
<pdfrwt beam="2">  1       21 0.12623241E-01 0.46256690E+03</pdfrwt>
<totfact> 0.49408410E+04</totfact>
</mgrwt>
</event>
<event>
 7    0  0.4709932E-002  0.4519416E+03  0.7546771E-02  0.1027145E+00
         21   -1    0    0  502  501  0.00000000000E+00  0.00000000000E+00  0.10288376819E+04  0.10288376819E+04  0.00000000000E+00 0.  1.
         21   -1    0    0  501  502 -0.00000000000E+00 -0.00000000000E+00 -0.49631534181E+02  0.49631534181E+02  0.00000000000E+00 0.  1.
      99926    2    1    2    0    0  0.00000000000E+00  0.00000000000E+00  0.97920614777E+03  0.10784692161E+04  0.45194155630E+03 0.  0.
      99925    2    3    3    0    0  0.77751595888E+02 -0.76756882095E+02  0.65346783921E+03  0.71283294417E+03  0.26300885878E+03 0.  0.
         25    1    3    3    0    0 -0.77751595888E+02  0.76756882095E+02  0.32573830855E+03  0.36563627196E+03  0.12509000000E+03 0.  0.
         25    1    4    4    0    0  0.12211734518E+02 -0.68908289774E+02  0.32405548844E+03  0.35434015656E+03  0.12509000000E+03 0.  0.
         25    1    4    4    0    0  0.65539861370E+02 -0.78485923217E+01  0.32941235077E+03  0.35849278761E+03  0.12509000000E+03 0.  0.
<mgrwt>
<rscale>  2 0.45194156E+03</rscale>
<asrwt>0</asrwt>
<pdfrwt beam="1">  1       21 0.15129965E+00 0.45194156E+03</pdfrwt>
<pdfrwt beam="2">  1       21 0.72987557E-02 0.45194156E+03</pdfrwt>
<totfact> 0.37127959E+04</totfact>
</mgrwt>
</event>
<event>
 7    0  0.4709932E-002  0.4367821E+03  0.7546771E-02  0.1031739E+00
         21   -1    0    0  502  501  0.00000000000E+00  0.00000000000E+00  0.12357718555E+03  0.12357718555E+03  0.00000000000E+00 0. -1.
         21   -1    0    0  501  502 -0.00000000000E+00 -0.00000000000E+00 -0.38595035300E+03  0.38595035300E+03  0.00000000000E+00 0. -1.
      99926    2    1    2    0    0 -0.88817841970E-15 -0.71054273576E-14 -0.26237316746E+03  0.50952753855E+03  0.43678213510E+03 0.  0.
      99925    2    3    3    0    0 -0.54194099053E+01 -0.47776099114E+02 -0.26361322684E+03  0.37550898947E+03  0.26306490104E+03 0.  0.
         25    1    4    4    0    0  0.22975813654E+02 -0.54574035915E+01 -0.91745385377E+02  0.15691524816E+03  0.12509000000E+03 0.  0.
         25    1    3    3    0    0  0.54194099053E+01  0.47776099114E+02  0.12400593836E+01  0.13401854908E+03  0.12509000000E+03 0.  0.
         25    1    4    4    0    0 -0.28395223559E+02 -0.42318695523E+02 -0.17186784146E+03  0.21859374131E+03  0.12509000000E+03 0.  0.
<mgrwt>
<rscale>  2 0.43678214E+03</rscale>
<asrwt>0</asrwt>
<pdfrwt beam="1">  1       21 0.18173116E-01 0.43678214E+03</pdfrwt>
<pdfrwt beam="2">  1       21 0.56757404E-01 0.43678214E+03</pdfrwt>
<totfact> 0.74850867E+04</totfact>
</mgrwt>
</event>
<event>
 7    0  0.4709932E-002  0.4370037E+03  0.7546771E-02  0.1031670E+00
         21   -1    0    0  502  501  0.00000000000E+00  0.00000000000E+00  0.11894530776E+04  0.11894530776E+04  0.00000000000E+00 0. -1.
         21   -1    0    0  501  502 -0.00000000000E+00 -0.00000000000E+00 -0.40138657306E+02  0.40138657306E+02  0.00000000000E+00 0. -1.
      99926    2    1    2    0    0  0.00000000000E+00 -0.35527136788E-14  0.11493144203E+04  0.12295917349E+04  0.43700365886E+03 0.  0.
      99925    2    3    3    0    0  0.62875933795E+02 -0.96714683520E+01  0.93568518333E+03  0.97399071900E+03  0.26287684957E+03 0.  0.
         25    1    4    4    0    0  0.41322252626E+02 -0.34057754769E+02  0.38494229235E+03  0.40828364620E+03  0.12509000000E+03 0.  0.
         25    1    4    4    0    0  0.21553681169E+02  0.24386286417E+02  0.55074289098E+03  0.56570707279E+03  0.12509000000E+03 0.  0.
         25    1    3    3    0    0 -0.62875933795E+02  0.96714683520E+01  0.21362923700E+03  0.25560101595E+03  0.12509000000E+03 0.  0.
<mgrwt>
<rscale>  2 0.43700366E+03</rscale>
<asrwt>0</asrwt>
<pdfrwt beam="1">  1       21 0.17491955E+00 0.43700366E+03</pdfrwt>
<pdfrwt beam="2">  1       21 0.59027445E-02 0.43700366E+03</pdfrwt>
<totfact> 0.36017060E+04</totfact>
</mgrwt>
</event>
<event>
 7    0  0.4709932E-002  0.4538936E+03  0.7546771E-02  0.1026567E+00
         21   -1    0    0  502  501  0.00000000000E+00  0.00000000000E+00  0.16856846588E+03  0.16856846588E+03  0.00000000000E+00 0.  1.
         21   -1    0    0  501  502 -0.00000000000E+00 -0.00000000000E+00 -0.30554266051E+03  0.30554266051E+03  0.00000000000E+00 0.  1.
      99926    2    1    2    0    0  0.00000000000E+00  0.71054273576E-14 -0.13697419463E+03  0.47411112639E+03  0.45389363310E+03 0.  0.
      99925    2    3    3    0    0 -0.33985587964E+02 -0.42865367609E+02 -0.18842646946E+03  0.32820943135E+03  0.26310537148E+03 0.  0.
         25    1    4    4    0    0 -0.19424377529E+02 -0.10974191769E+01 -0.13529664213E+03  0.18528680537E+03  0.12509000000E+03 0.  0.
         25    1    3    3    0    0  0.33985587964E+02  0.42865367609E+02  0.51452274832E+02  0.14590169504E+03  0.12509000000E+03 0.  0.
         25    1    4    4    0    0 -0.14561210436E+02 -0.41767948432E+02 -0.53129827334E+02  0.14292262598E+03  0.12509000000E+03 0.  0.
<mgrwt>
<rscale>  2 0.45389363E+03</rscale>
<asrwt>0</asrwt>
<pdfrwt beam="1">  1       21 0.24789481E-01 0.45389363E+03</pdfrwt>
<pdfrwt beam="2">  1       21 0.44932743E-01 0.45389363E+03</pdfrwt>
<totfact> 0.67723993E+04</totfact>
</mgrwt>
</event>
<event>
 7    0  0.4709932E-002  0.4451728E+03  0.7546771E-02  0.1029171E+00
         21   -1    0    0  502  501  0.00000000000E+00  0.00000000000E+00  0.15345531593E+03  0.15345531593E+03  0.00000000000E+00 0. -1.
         21   -1    0    0  501  502 -0.00000000000E+00 -0.00000000000E+00 -0.32286078890E+03  0.32286078890E+03  0.00000000000E+00 0. -1.
      99926    2    1    2    0    0  0.00000000000E+00  0.00000000000E+00 -0.16940547297E+03  0.47631610483E+03  0.44517279504E+03 0.  0.
      99925    2    3    3    0    0 -0.90615275081E+02  0.26270731044E+02 -0.15358562496E+03  0.31883894750E+03  0.26299895602E+03 0.  0.
         25    1    3    3    0    0  0.90615275081E+02 -0.26270731044E+02 -0.15819848013E+02  0.15747715732E+03  0.12509000000E+03 0.  0.
         25    1    4    4    0    0 -0.11002037589E+02 -0.10928381087E+02 -0.60029979796E+02  0.13961225204E+03  0.12509000000E+03 0.  0.
         25    1    4    4    0    0 -0.79613237492E+02  0.37199112131E+02 -0.93555645160E+02  0.17922669547E+03  0.12509000000E+03 0.  0.
<mgrwt>
<rscale>  2 0.44517280E+03</rscale>
<asrwt>0</asrwt>
<pdfrwt beam="1">  1       21 0.22566959E-01 0.44517280E+03</pdfrwt>
<pdfrwt beam="2">  1       21 0.47479527E-01 0.44517280E+03</pdfrwt>
<totfact> 0.72458670E+04</totfact>
</mgrwt>
</event>
<event>
 7    0  0.4709932E-002  0.4534315E+03  0.7546771E-02  0.1026704E+00
         21   -1    0    0  502  501  0.00000000000E+00  0.00000000000E+00  0.45101706980E+02  0.45101706980E+02  0.00000000000E+00 0.  1.
         21   -1    0    0  501  502 -0.00000000000E+00 -0.00000000000E+00 -0.11396472844E+04  0.11396472844E+04  0.00000000000E+00 0.  1.
      99926    2    1    2    0    0 -0.35527136788E-14 -0.71054273576E-14 -0.10945455774E+04  0.11847489914E+04  0.45343152904E+03 0.  0.
      99925    2    3    3    0    0 -0.29175100753E+02 -0.58593298909E+02 -0.45296989126E+03  0.52782340171E+03  0.26292862117E+03 0.  0.
         25    1    3    3    0    0  0.29175100753E+02  0.58593298909E+02 -0.64157568617E+03  0.65692558967E+03  0.12509000000E+03 0.  0.
         25    1    4    4    0    0  0.12189647190E+01 -0.58010188046E+01 -0.15737521670E+03  0.20112087068E+03  0.12509000000E+03 0.  0.
         25    1    4    4    0    0 -0.30394065472E+02 -0.52792280104E+02 -0.29559467456E+03  0.32670253103E+03  0.12509000000E+03 0.  0.
<mgrwt>
<rscale>  2 0.45343153E+03</rscale>
<asrwt>0</asrwt>
<pdfrwt beam="1">  1       21 0.66326055E-02 0.45343153E+03</pdfrwt>
<pdfrwt beam="2">  1       21 0.16759515E+00 0.45343153E+03</pdfrwt>
<totfact> 0.33045071E+04</totfact>
</mgrwt>
</event>
<event>
 7    0  0.4709932E-002  0.4570846E+03  0.7546771E-02  0.1025630E+00
         21   -1    0    0  502  501  0.00000000000E+00  0.00000000000E+00  0.48093645323E+03  0.48093645323E+03  0.00000000000E+00 0. -1.
         21   -1    0    0  501  502 -0.00000000000E+00 -0.00000000000E+00 -0.10860391071E+03  0.10860391071E+03  0.00000000000E+00 0. -1.
      99926    2    1    2    0    0  0.00000000000E+00  0.00000000000E+00  0.37233254252E+03  0.58954036394E+03  0.45708458571E+03 0.  0.
      99925    2    3    3    0    0  0.10767716041E+03 -0.23482712854E+02  0.27663232706E+03  0.39731172919E+03  0.26303109532E+03 0.  0.
         25    1    4    4    0    0  0.16167908219E+02 -0.11643097796E+02  0.15347724013E+03  0.19899681988E+03  0.12509000000E+03 0.  0.
         25    1    4    4    0    0  0.91509252192E+02 -0.11839615059E+02  0.12315508692E+03  0.19831490932E+03  0.12509000000E+03 0.  0.
         25    1    3    3    0    0 -0.10767716041E+03  0.23482712854E+02  0.95700215458E+02  0.19222863474E+03  0.12509000000E+03 0.  0.
<mgrwt>
<rscale>  2 0.45708459E+03</rscale>
<asrwt>0</asrwt>
<pdfrwt beam="1">  1       21 0.70725948E-01 0.45708459E+03</pdfrwt>
<pdfrwt beam="2">  1       21 0.15971164E-01 0.45708459E+03</pdfrwt>
<totfact> 0.58359265E+04</totfact>
</mgrwt>
</event>
<event>
 7    0  0.4709932E-002  0.4497883E+03  0.7546771E-02  0.1027785E+00
         21   -1    0    0  502  501  0.00000000000E+00  0.00000000000E+00  0.17616478647E+03  0.17616478647E+03  0.00000000000E+00 0.  1.
         21   -1    0    0  501  502 -0.00000000000E+00 -0.00000000000E+00 -0.28710270364E+03  0.28710270364E+03  0.00000000000E+00 0.  1.
      99926    2    1    2    0    0  0.00000000000E+00  0.00000000000E+00 -0.11093791717E+03  0.46326749010E+03  0.44978833458E+03 0.  0.
      99925    2    3    3    0    0 -0.79497084044E+02  0.64067607476E+02 -0.10689799444E+03  0.30174884172E+03  0.26306033066E+03 0.  0.
         25    1    3    3    0    0  0.79497084044E+02 -0.64067607476E+02 -0.40399227307E+01  0.16151864838E+03  0.12509000000E+03 0.  0.
         25    1    4    4    0    0 -0.25521662874E+02  0.64081721762E+00 -0.23283382959E+02  0.12977438093E+03  0.12509000000E+03 0.  0.
         25    1    4    4    0    0 -0.53975421170E+02  0.63426790259E+02 -0.83614611482E+02  0.17197446080E+03  0.12509000000E+03 0.  0.
<mgrwt>
<rscale>  2 0.44978833E+03</rscale>
<asrwt>0</asrwt>
<pdfrwt beam="1">  1       21 0.25906587E-01 0.44978833E+03</pdfrwt>
<pdfrwt beam="2">  1       21 0.42220985E-01 0.44978833E+03</pdfrwt>
<totfact> 0.70822734E+04</totfact>
</mgrwt>
</event>
<event>
 7    0  0.4709932E-002  0.4554792E+03  0.7546771E-02  0.1026101E+00
         21   -1    0    0  502  501  0.00000000000E+00  0.00000000000E+00  0.58162320086E+03  0.58162320086E+03  0.00000000000E+00 0. -1.
         21   -1    0    0  501  502 -0.00000000000E+00 -0.00000000000E+00 -0.89173399538E+02  0.89173399538E+02  0.00000000000E+00 0. -1.
      99926    2    1    2    0    0  0.88817841970E-15  0.00000000000E+00  0.49244980133E+03  0.67079660040E+03  0.45547916778E+03 0.  0.
      99925    2    3    3    0    0  0.46969681711E+01 -0.71225970618E+02  0.43988785691E+03  0.51748167451E+03  0.26304135872E+03 0.  0.
         25    1    4    4    0    0 -0.25822084085E+02 -0.10291532927E+02  0.17752228207E+03  0.21893917970E+03  0.12509000000E+03 0.  0.
         25    1    3    3    0    0 -0.46969681711E+01  0.71225970618E+02  0.52561944419E+02  0.15331492589E+03  0.12509000000E+03 0.  0.
         25    1    4    4    0    0  0.30519052257E+02 -0.60934437691E+02  0.26236557483E+03  0.29854249481E+03  0.12509000000E+03 0.  0.
<mgrwt>
<rscale>  2 0.45547917E+03</rscale>
<asrwt>0</asrwt>
<pdfrwt beam="1">  1       21 0.85532822E-01 0.45547917E+03</pdfrwt>
<pdfrwt beam="2">  1       21 0.13113735E-01 0.45547917E+03</pdfrwt>
<totfact> 0.54312057E+04</totfact>
</mgrwt>
</event>
<event>
 7    0  0.4709932E-002  0.4480412E+03  0.7546771E-02  0.1028308E+00
         21   -1    0    0  502  501  0.00000000000E+00  0.00000000000E+00  0.42030923279E+03  0.42030923279E+03  0.00000000000E+00 0. -1.
         21   -1    0    0  501  502 -0.00000000000E+00 -0.00000000000E+00 -0.11940072400E+03  0.11940072400E+03  0.00000000000E+00 0. -1.
      99926    2    1    2    0    0 -0.71054273576E-14  0.00000000000E+00  0.30090850878E+03  0.53970995679E+03  0.44804118873E+03 0.  0.
      99925    2    3    3    0    0  0.63804223329E+02 -0.74043872500E+02  0.24152271008E+03  0.37021761137E+03  0.26301023993E+03 0.  0.
         25    1    4    4    0    0  0.61241845160E+02 -0.25140445140E+02  0.15761535765E+03  0.21183180745E+03  0.12509000000E+03 0.  0.
         25    1    4    4    0    0  0.25623781686E+01 -0.48903427360E+02  0.83907352436E+02  0.15838580392E+03  0.12509000000E+03 0.  0.
         25    1    3    3    0    0 -0.63804223329E+02  0.74043872500E+02  0.59385798700E+02  0.16949234542E+03  0.12509000000E+03 0.  0.
<mgrwt>
<rscale>  2 0.44804119E+03</rscale>
<asrwt>0</asrwt>
<pdfrwt beam="1">  1       21 0.61810181E-01 0.44804119E+03</pdfrwt>
<pdfrwt beam="2">  1       21 0.17558930E-01 0.44804119E+03</pdfrwt>
<totfact> 0.66118327E+04</totfact>
</mgrwt>
</event>
<event>
 7    0  0.4709932E-002  0.4417472E+03  0.7546771E-02  0.1030212E+00
         21   -1    0    0  502  501  0.00000000000E+00  0.00000000000E+00  0.18233160662E+03  0.18233160662E+03  0.00000000000E+00 0. -1.
         21   -1    0    0  501  502 -0.00000000000E+00 -0.00000000000E+00 -0.26756280257E+03  0.26756280257E+03  0.00000000000E+00 0. -1.
      99926    2    1    2    0    0  0.00000000000E+00  0.14210854715E-13 -0.85231195947E+02  0.44989440919E+03  0.44174723843E+03 0.  0.
      99925    2    3    3    0    0 -0.38745529648E+02  0.92358519230E+02 -0.50336342246E+02  0.28589297305E+03  0.26300139267E+03 0.  0.
         25    1    3    3    0    0  0.38745529648E+02 -0.92358519230E+02 -0.34894853702E+02  0.16400143614E+03  0.12509000000E+03 0.  0.
         25    1    4    4    0    0  0.18895306215E+02  0.35179158819E+02 -0.11633116690E+02  0.13182353097E+03  0.12509000000E+03 0.  0.
         25    1    4    4    0    0 -0.57640835862E+02  0.57179360411E+02 -0.38703225555E+02  0.15406944208E+03  0.12509000000E+03 0.  0.
<mgrwt>
<rscale>  2 0.44174724E+03</rscale>
<asrwt>0</asrwt>
<pdfrwt beam="1">  1       21 0.26813472E-01 0.44174724E+03</pdfrwt>
<pdfrwt beam="2">  1       21 0.39347471E-01 0.44174724E+03</pdfrwt>
<totfact> 0.76713336E+04</totfact>
</mgrwt>
</event>
<event>
 7    0  0.4709932E-002  0.4284493E+03  0.7546771E-02  0.1034351E+00
         21   -1    0    0  502  501  0.00000000000E+00  0.00000000000E+00  0.19424846554E+04  0.19424846554E+04  0.00000000000E+00 0. -1.
         21   -1    0    0  501  502 -0.00000000000E+00 -0.00000000000E+00 -0.23625514103E+02  0.23625514103E+02  0.00000000000E+00 0. -1.
      99926    2    1    2    0    0 -0.71054273576E-14  0.00000000000E+00  0.19188591413E+04  0.19661101695E+04  0.42844929044E+03 0.  0.
      99925    2    3    3    0    0  0.55192056942E+02 -0.45366511134E+02  0.14583165969E+04  0.14835635637E+04  0.26300050804E+03 0.  0.
         25    1    3    3    0    0 -0.55192056942E+02  0.45366511134E+02  0.46054254435E+03  0.48254660577E+03  0.12509000000E+03 0.  0.
         25    1    4    4    0    0  0.61981930385E+02 -0.66894129615E+01  0.67049888575E+03  0.68491077655E+03  0.12509000000E+03 0.  0.
         25    1    4    4    0    0 -0.67898734429E+01 -0.38677098173E+02  0.78781771118E+03  0.79865278717E+03  0.12509000000E+03 0.  0.
<mgrwt>
<rscale>  2 0.42844929E+03</rscale>
<asrwt>0</asrwt>
<pdfrwt beam="1">  1       21 0.28565940E+00 0.42844929E+03</pdfrwt>
<pdfrwt beam="2">  1       21 0.34743416E-02 0.42844929E+03</pdfrwt>
<totfact> 0.17635294E+04</totfact>
</mgrwt>
</event>
<event>
 6    0  0.4709932E-002  0.4561947E+03  0.7546771E-02  0.1025891E+00
         21   -1    0    0  502  501  0.00000000000E+00  0.00000000000E+00  0.45895336805E+02  0.45895336805E+02  0.00000000000E+00 0. -1.
         21   -1    0    0  501  502 -0.00000000000E+00 -0.00000000000E+00 -0.11336314126E+04  0.11336314126E+04  0.00000000000E+00 0. -1.
      99926    2    1    2    0    0  0.71054273576E-14  0.00000000000E+00 -0.10877360758E+04  0.11795267494E+04  0.45619467552E+03 0.  0.
         25    1    3    3    0    0 -0.62203636574E+02 -0.79699997437E+01 -0.22404634989E+03  0.26415353168E+03  0.12509000000E+03 0.  0.
         25    1    3    3    0    0  0.59025412313E+01 -0.10279214171E+02 -0.19119002794E+03  0.22878294762E+03  0.12509000000E+03 0.  0.
         25    1    3    3    0    0  0.56301095343E+02  0.18249213915E+02 -0.67249969796E+03  0.68659027010E+03  0.12509000000E+03 0.  0.
<mgrwt>
<rscale>  2 0.45619468E+03</rscale>
<asrwt>0</asrwt>
<pdfrwt beam="1">  1       21 0.67493142E-02 0.45619468E+03</pdfrwt>
<pdfrwt beam="2">  1       21 0.16671050E+00 0.45619468E+03</pdfrwt>
<totfact> 0.32508024E+04</totfact>
</mgrwt>
</event>
<event>
 7    0  0.4709932E-002  0.4578255E+03  0.7546771E-02  0.1025414E+00
         21   -1    0    0  502  501  0.00000000000E+00  0.00000000000E+00  0.10296775303E+04  0.10296775303E+04  0.00000000000E+00 0. -1.
         21   -1    0    0  501  502 -0.00000000000E+00 -0.00000000000E+00 -0.50890727925E+02  0.50890727925E+02  0.00000000000E+00 0. -1.
      99926    2    1    2    0    0  0.00000000000E+00  0.00000000000E+00  0.97878680240E+03  0.10805682583E+04  0.45782546476E+03 0.  0.
      99925    2    3    3    0    0 -0.10081108716E+03  0.51349391482E+02  0.67478984200E+03  0.73291714674E+03  0.26272909588E+03 0.  0.
         25    1    4    4    0    0 -0.47308455966E+02  0.48716151819E+02  0.26045730296E+03  0.29681116592E+03  0.12509000000E+03 0.  0.
         25    1    3    3    0    0  0.10081108716E+03 -0.51349391482E+02  0.30399696040E+03  0.34765111151E+03  0.12509000000E+03 0.  0.
         25    1    4    4    0    0 -0.53502631191E+02  0.26332396636E+01  0.41433253904E+03  0.43610598082E+03  0.12509000000E+03 0.  0.
<mgrwt>
<rscale>  2 0.45782546E+03</rscale>
<asrwt>0</asrwt>
<pdfrwt beam="1">  1       21 0.15142315E+00 0.45782546E+03</pdfrwt>
<pdfrwt beam="2">  1       21 0.74839313E-02 0.45782546E+03</pdfrwt>
<totfact> 0.35388693E+04</totfact>
</mgrwt>
</event>
<event>
 7    0  0.4709932E-002  0.4377986E+03  0.7546771E-02  0.1031424E+00
         21   -1    0    0  502  501  0.00000000000E+00  0.00000000000E+00  0.20100295598E+04  0.20100295598E+04  0.00000000000E+00 0.  1.
         21   -1    0    0  501  502 -0.00000000000E+00 -0.00000000000E+00 -0.23838905763E+02  0.23838905763E+02  0.00000000000E+00 0.  1.
      99926    2    1    2    0    0  0.00000000000E+00 -0.35527136788E-14  0.19861906540E+04  0.20338684655E+04  0.43779860784E+03 0.  0.
      99925    2    3    3    0    0  0.94383126226E+02  0.51022276748E+01  0.13566042725E+04  0.13850536021E+04  0.26280053471E+03 0.  0.
         25    1    4    4    0    0  0.37893938810E+02 -0.29149155942E+02  0.54487306460E+03  0.56108803990E+03  0.12509000000E+03 0.  0.
         25    1    4    4    0    0  0.56489187416E+02  0.34251383616E+02  0.81173120794E+03  0.82396556216E+03  0.12509000000E+03 0.  0.
         25    1    3    3    0    0 -0.94383126226E+02 -0.51022276748E+01  0.62958638147E+03  0.64881486348E+03  0.12509000000E+03 0.  0.
<mgrwt>
<rscale>  2 0.43779861E+03</rscale>
<asrwt>0</asrwt>
<pdfrwt beam="1">  1       21 0.29559247E+00 0.43779861E+03</pdfrwt>
<pdfrwt beam="2">  1       21 0.35057228E-02 0.43779861E+03</pdfrwt>
<totfact> 0.15080122E+04</totfact>
</mgrwt>
</event>
<event>
 7    0  0.4709932E-002  0.4509164E+03  0.7546771E-02  0.1027449E+00
         21   -1    0    0  502  501  0.00000000000E+00  0.00000000000E+00  0.36128447597E+03  0.36128447597E+03  0.00000000000E+00 0. -1.
         21   -1    0    0  501  502 -0.00000000000E+00 -0.00000000000E+00 -0.14069635022E+03  0.14069635022E+03  0.00000000000E+00 0. -1.
      99926    2    1    2    0    0  0.71054273576E-14  0.00000000000E+00  0.22058812574E+03  0.50198082619E+03  0.45091643200E+03 0.  0.
      99925    2    3    3    0    0  0.47630830907E+02 -0.44624824333E+02  0.41707056637E+02  0.27415190796E+03  0.26298235504E+03 0.  0.
         25    1    3    3    0    0 -0.47630830907E+02  0.44624824333E+02  0.17888106911E+03  0.22782891824E+03  0.12509000000E+03 0.  0.
         25    1    4    4    0    0  0.74594725939E+01  0.63380367689E+00 -0.10399871190E+02  0.12574462557E+03  0.12509000000E+03 0.  0.
         25    1    4    4    0    0  0.40171358313E+02 -0.45258628010E+02  0.52106927827E+02  0.14840728239E+03  0.12509000000E+03 0.  0.
<mgrwt>
<rscale>  2 0.45091643E+03</rscale>
<asrwt>0</asrwt>
<pdfrwt beam="1">  1       21 0.53130070E-01 0.45091643E+03</pdfrwt>
<pdfrwt beam="2">  1       21 0.20690640E-01 0.45091643E+03</pdfrwt>
<totfact> 0.67286368E+04</totfact>
</mgrwt>
</event>
<event>
 7    0  0.4709932E-002  0.4578812E+03  0.7546771E-02  0.1025398E+00
         21   -1    0    0  502  501  0.00000000000E+00  0.00000000000E+00  0.89702727872E+03  0.89702727872E+03  0.00000000000E+00 0. -1.
         21   -1    0    0  501  502 -0.00000000000E+00 -0.00000000000E+00 -0.58430551960E+02  0.58430551960E+02  0.00000000000E+00 0. -1.
      99926    2    1    2    0    0  0.00000000000E+00  0.00000000000E+00  0.83859672676E+03  0.95545783068E+03  0.45788120301E+03 0.  0.
      99925    2    3    3    0    0 -0.80104122716E+02 -0.79507158812E+02  0.58125329084E+03  0.64786847637E+03  0.26294508129E+03 0.  0.
         25    1    4    4    0    0 -0.63737629149E+01 -0.62391747152E+02  0.28608152776E+03  0.31847056942E+03  0.12509000000E+03 0.  0.
         25    1    3    3    0    0  0.80104122716E+02  0.79507158812E+02  0.25734343592E+03  0.30758935432E+03  0.12509000000E+03 0.  0.
         25    1    4    4    0    0 -0.73730359801E+02 -0.17115411660E+02  0.29517176309E+03  0.32939790694E+03  0.12509000000E+03 0.  0.
<mgrwt>
<rscale>  2 0.45788120E+03</rscale>
<asrwt>0</asrwt>
<pdfrwt beam="1">  1       21 0.13191577E+00 0.45788120E+03</pdfrwt>
<pdfrwt beam="2">  1       21 0.85927287E-02 0.45788120E+03</pdfrwt>
<totfact> 0.40011547E+04</totfact>
</mgrwt>
</event>
<event>
 7    0  0.4709932E-002  0.4650337E+03  0.7546771E-02  0.1023331E+00
         21   -1    0    0  502  501  0.00000000000E+00  0.00000000000E+00  0.19709697232E+02  0.19709697232E+02  0.00000000000E+00 0.  1.
         21   -1    0    0  501  502 -0.00000000000E+00 -0.00000000000E+00 -0.27430194153E+04  0.27430194153E+04  0.00000000000E+00 0.  1.
      99926    2    1    2    0    0  0.00000000000E+00  0.00000000000E+00 -0.27233097181E+04  0.27627291125E+04  0.46503368557E+03 0.  0.
      99925    2    3    3    0    0 -0.72961236193E+02 -0.77614040581E+02 -0.20560986395E+04  0.20755861778E+04  0.26300016134E+03 0.  0.
         25    1    4    4    0    0 -0.48514400194E+02 -0.53544545673E+02 -0.13467955929E+04  0.13545207797E+04  0.12509000000E+03 0.  0.
         25    1    3    3    0    0  0.72961236193E+02  0.77614040581E+02 -0.66721107861E+03  0.68714293477E+03  0.12509000000E+03 0.  0.
         25    1    4    4    0    0 -0.24446835999E+02 -0.24069494908E+02 -0.70930304659E+03  0.72106539812E+03  0.12509000000E+03 0.  0.
<mgrwt>
<rscale>  2 0.46503369E+03</rscale>
<asrwt>0</asrwt>
<pdfrwt beam="1">  1       21 0.28984808E-02 0.46503369E+03</pdfrwt>
<pdfrwt beam="2">  1       21 0.40338578E+00 0.46503369E+03</pdfrwt>
<totfact> 0.44431296E+03</totfact>
</mgrwt>
</event>
<event>
 7    0  0.4709932E-002  0.4591813E+03  0.7546771E-02  0.1025019E+00
         21   -1    0    0  502  501  0.00000000000E+00  0.00000000000E+00  0.46505864903E+02  0.46505864903E+02  0.00000000000E+00 0. -1.
         21   -1    0    0  501  502 -0.00000000000E+00 -0.00000000000E+00 -0.11334457130E+04  0.11334457130E+04  0.00000000000E+00 0. -1.
      99926    2    1    2    0    0  0.14210854715E-13  0.00000000000E+00 -0.10869398481E+04  0.11799515779E+04  0.45918132890E+03 0.  0.
      99925    2    3    3    0    0  0.85058463273E+02  0.12699561493E+02 -0.88537772640E+03  0.92762041050E+03  0.26303932509E+03 0.  0.
         25    1    4    4    0    0  0.78807580720E+02 -0.14301377620E+02 -0.46400288577E+03  0.48719744486E+03  0.12509000000E+03 0.  0.
         25    1    4    4    0    0  0.62508825525E+01  0.27000939112E+02 -0.42137484063E+03  0.44042296564E+03  0.12509000000E+03 0.  0.
         25    1    3    3    0    0 -0.85058463273E+02 -0.12699561493E+02 -0.20156212168E+03  0.25233116738E+03  0.12509000000E+03 0.  0.
<mgrwt>
<rscale>  2 0.45918133E+03</rscale>
<asrwt>0</asrwt>
<pdfrwt beam="1">  1       21 0.68390985E-02 0.45918133E+03</pdfrwt>
<pdfrwt beam="2">  1       21 0.16668317E+00 0.45918133E+03</pdfrwt>
<totfact> 0.31750851E+04</totfact>
</mgrwt>
</event>
<event>
 7    0  0.4709932E-002  0.4185436E+03  0.7546771E-02  0.1037541E+00
         21   -1    0    0  502  501  0.00000000000E+00  0.00000000000E+00  0.10791189963E+03  0.10791189963E+03  0.00000000000E+00 0. -1.
         21   -1    0    0  501  502 -0.00000000000E+00 -0.00000000000E+00 -0.40583732662E+03  0.40583732662E+03  0.00000000000E+00 0. -1.
      99926    2    1    2    0    0  0.00000000000E+00  0.00000000000E+00 -0.29792542699E+03  0.51374922625E+03  0.41854355500E+03 0.  0.
      99925    2    3    3    0    0  0.17060227256E+02  0.65053248629E+02 -0.23209506935E+03  0.35721130561E+03  0.26307569087E+03 0.  0.
         25    1    4    4    0    0  0.11115653196E+02  0.68223579719E+02 -0.95599718552E+02  0.17194426092E+03  0.12509000000E+03 0.  0.
         25    1    4    4    0    0  0.59445740597E+01 -0.31703310902E+01 -0.13649535080E+03  0.18526704469E+03  0.12509000000E+03 0.  0.
         25    1    3    3    0    0 -0.17060227256E+02 -0.65053248629E+02 -0.65830357636E+02  0.15653792064E+03  0.12509000000E+03 0.  0.
<mgrwt>
<rscale>  2 0.41854355E+03</rscale>
<asrwt>0</asrwt>
<pdfrwt beam="1">  1       21 0.15869397E-01 0.41854355E+03</pdfrwt>
<pdfrwt beam="2">  1       21 0.59681961E-01 0.41854355E+03</pdfrwt>
<totfact> 0.86802724E+04</totfact>
</mgrwt>
</event>
<event>
 7    0  0.4709932E-002  0.4484205E+03  0.7546771E-02  0.1028194E+00
         21   -1    0    0  502  501  0.00000000000E+00  0.00000000000E+00  0.51531170290E+03  0.51531170290E+03  0.00000000000E+00 0.  1.
         21   -1    0    0  501  502 -0.00000000000E+00 -0.00000000000E+00 -0.97553058989E+02  0.97553058989E+02  0.00000000000E+00 0.  1.
      99926    2    1    2    0    0  0.00000000000E+00  0.00000000000E+00  0.41775864391E+03  0.61286476189E+03  0.44842048548E+03 0.  0.
      99925    2    3    3    0    0 -0.98668955398E+01 -0.87075782078E+01  0.11967632400E+03  0.28933152544E+03  0.26309148892E+03 0.  0.
         25    1    3    3    0    0  0.98668955398E+01  0.87075782078E+01  0.29808231991E+03  0.32353323645E+03  0.12509000000E+03 0.  0.
         25    1    4    4    0    0 -0.23764256806E+02 -0.85053831552E+01  0.20838061989E+02  0.12930125433E+03  0.12509000000E+03 0.  0.
         25    1    4    4    0    0  0.13897361266E+02 -0.20219505260E+00  0.98838262013E+02  0.16003027111E+03  0.12509000000E+03 0.  0.
<mgrwt>
<rscale>  2 0.44842049E+03</rscale>
<asrwt>0</asrwt>
<pdfrwt beam="1">  1       21 0.75781132E-01 0.44842049E+03</pdfrwt>
<pdfrwt beam="2">  1       21 0.14346038E-01 0.44842049E+03</pdfrwt>
<totfact> 0.61001997E+04</totfact>
</mgrwt>
</event>
<event>
 7    0  0.4709932E-002  0.4342557E+03  0.7546771E-02  0.1032524E+00
         21   -1    0    0  502  501  0.00000000000E+00  0.00000000000E+00  0.43634590784E+03  0.43634590784E+03  0.00000000000E+00 0.  1.
         21   -1    0    0  501  502 -0.00000000000E+00 -0.00000000000E+00 -0.10804387063E+03  0.10804387063E+03  0.00000000000E+00 0.  1.
      99926    2    1    2    0    0  0.00000000000E+00 -0.71054273576E-14  0.32830203721E+03  0.54438977848E+03  0.43425568882E+03 0.  0.
      99925    2    3    3    0    0 -0.78831223976E+02 -0.44883508097E+02  0.18901902320E+03  0.33636055634E+03  0.26302346199E+03 0.  0.
         25    1    4    4    0    0 -0.62399107110E+01  0.37716847939E+01  0.93431693161E+02  0.15630147625E+03  0.12509000000E+03 0.  0.
         25    1    4    4    0    0 -0.72591313265E+02 -0.48655192891E+02  0.95587330038E+02  0.18005908008E+03  0.12509000000E+03 0.  0.
         25    1    3    3    0    0  0.78831223976E+02  0.44883508097E+02  0.13928301401E+03  0.20802922214E+03  0.12509000000E+03 0.  0.
<mgrwt>
<rscale>  2 0.43425569E+03</rscale>
<asrwt>0</asrwt>
<pdfrwt beam="1">  1       21 0.64168515E-01 0.43425569E+03</pdfrwt>
<pdfrwt beam="2">  1       21 0.15888805E-01 0.43425569E+03</pdfrwt>
<totfact> 0.73595593E+04</totfact>
</mgrwt>
</event>
<event>
 7    0  0.4709932E-002  0.4545241E+03  0.7546771E-02  0.1026381E+00
         21   -1    0    0  502  501  0.00000000000E+00  0.00000000000E+00  0.64299787705E+02  0.64299787705E+02  0.00000000000E+00 0.  1.
         21   -1    0    0  501  502 -0.00000000000E+00 -0.00000000000E+00 -0.80323815443E+03  0.80323815443E+03  0.00000000000E+00 0.  1.
      99926    2    1    2    0    0  0.00000000000E+00  0.00000000000E+00 -0.73893836673E+03  0.86753794214E+03  0.45452411512E+03 0.  0.
      99925    2    3    3    0    0 -0.10547800533E+03  0.26114189471E+02 -0.52228806649E+03  0.59478820118E+03  0.26302208912E+03 0.  0.
         25    1    4    4    0    0 -0.91469930926E+01  0.11382819818E+02 -0.22440080446E+03  0.25732560155E+03  0.12509000000E+03 0.  0.
         25    1    4    4    0    0 -0.96331012237E+02  0.14731369653E+02 -0.29788726203E+03  0.33746259963E+03  0.12509000000E+03 0.  0.
         25    1    3    3    0    0  0.10547800533E+03 -0.26114189471E+02 -0.21665030023E+03  0.27274974095E+03  0.12509000000E+03 0.  0.
<mgrwt>
<rscale>  2 0.45452412E+03</rscale>
<asrwt>0</asrwt>
<pdfrwt beam="1">  1       21 0.94558503E-02 0.45452412E+03</pdfrwt>
<pdfrwt beam="2">  1       21 0.11812327E+00 0.45452412E+03</pdfrwt>
<totfact> 0.44831704E+04</totfact>
</mgrwt>
</event>
<event>
 7    0  0.4709932E-002  0.4919001E+03  0.7546771E-02  0.1015915E+00
         21   -1    0    0  502  501  0.00000000000E+00  0.00000000000E+00  0.32171501580E+03  0.32171501580E+03  0.00000000000E+00 0.  1.
         21   -1    0    0  501  502 -0.00000000000E+00 -0.00000000000E+00 -0.18802799343E+03  0.18802799343E+03  0.00000000000E+00 0.  1.
      99926    2    1    2    0    0  0.00000000000E+00  0.00000000000E+00  0.13368702237E+03  0.50974300924E+03  0.49190010725E+03 0.  0.
      99925    2    3    3    0    0 -0.29157477506E+02 -0.11586611541E+03 -0.35883018476E+01  0.28891018121E+03  0.26302300603E+03 0.  0.
         25    1    4    4    0    0 -0.15734578784E+02 -0.97292097144E+02 -0.20706522848E+02  0.16059139866E+03  0.12509000000E+03 0.  0.
         25    1    3    3    0    0  0.29157477506E+02  0.11586611541E+03  0.13727532421E+03  0.22083282802E+03  0.12509000000E+03 0.  0.
         25    1    4    4    0    0 -0.13422898722E+02 -0.18574018266E+02  0.17118221001E+02  0.12831878255E+03  0.12509000000E+03 0.  0.
<mgrwt>
<rscale>  2 0.49190011E+03</rscale>
<asrwt>0</asrwt>
<pdfrwt beam="1">  1       21 0.47311032E-01 0.49190011E+03</pdfrwt>
<pdfrwt beam="2">  1       21 0.27651175E-01 0.49190011E+03</pdfrwt>
<totfact> 0.48687834E+04</totfact>
</mgrwt>
</event>
<event>
 7    0  0.4709932E-002  0.4555956E+03  0.7546771E-02  0.1026066E+00
         21   -1    0    0  502  501  0.00000000000E+00  0.00000000000E+00  0.14425860922E+03  0.14425860922E+03  0.00000000000E+00 0. -1.
         21   -1    0    0  501  502 -0.00000000000E+00 -0.00000000000E+00 -0.35971402906E+03  0.35971402906E+03  0.00000000000E+00 0. -1.
      99926    2    1    2    0    0  0.00000000000E+00  0.00000000000E+00 -0.21545541984E+03  0.50397263828E+03  0.45559563452E+03 0.  0.
      99925    2    3    3    0    0  0.10287072417E+03 -0.47739987445E+02 -0.12598059160E+03  0.31288432026E+03  0.26299048674E+03 0.  0.
         25    1    4    4    0    0  0.47251422566E+02 -0.60946115267E+02 -0.46989771970E+02  0.15428114814E+03  0.12509000000E+03 0.  0.
         25    1    3    3    0    0 -0.10287072417E+03  0.47739987445E+02 -0.89474828247E+02  0.19108831802E+03  0.12509000000E+03 0.  0.
         25    1    4    4    0    0  0.55619301607E+02  0.13206127822E+02 -0.78990819626E+02  0.15860317213E+03  0.12509000000E+03 0.  0.
<mgrwt>
<rscale>  2 0.45559563E+03</rscale>
<asrwt>0</asrwt>
<pdfrwt beam="1">  1       21 0.21214502E-01 0.45559563E+03</pdfrwt>
<pdfrwt beam="2">  1       21 0.52899121E-01 0.45559563E+03</pdfrwt>
<totfact> 0.64686096E+04</totfact>
</mgrwt>
</event>
<event>
 7    0  0.4709932E-002  0.4552640E+03  0.7546771E-02  0.1026164E+00
         21   -1    0    0  502  501  0.00000000000E+00  0.00000000000E+00  0.11573291203E+03  0.11573291203E+03  0.00000000000E+00 0. -1.
         21   -1    0    0  501  502 -0.00000000000E+00 -0.00000000000E+00 -0.44772332935E+03  0.44772332935E+03  0.00000000000E+00 0. -1.
      99926    2    1    2    0    0 -0.14210854715E-13  0.00000000000E+00 -0.33199041731E+03  0.56345624138E+03  0.45526398800E+03 0.  0.
      99925    2    3    3    0    0 -0.72514066591E+02 -0.33705672670E+01 -0.10303041080E+03  0.29264294174E+03  0.26411167189E+03 0.  0.
         25    1    3    3    0    0  0.72514066591E+02  0.33705672670E+01 -0.22896000652E+03  0.27081329964E+03  0.12509000000E+03 0.  0.
         25    1    4    4    0    0 -0.21325361388E+02 -0.29948424386E+02 -0.80045308253E+02  0.15299162930E+03  0.12509000000E+03 0.  0.
         25    1    4    4    0    0 -0.51188705203E+02  0.26577857119E+02 -0.22985102544E+02  0.13965131245E+03  0.12509000000E+03 0.  0.
<mgrwt>
<rscale>  2 0.45526399E+03</rscale>
<asrwt>0</asrwt>
<pdfrwt beam="1">  1       21 0.17019546E-01 0.45526399E+03</pdfrwt>
<pdfrwt beam="2">  1       21 0.65841665E-01 0.45526399E+03</pdfrwt>
<totfact> 0.60858806E+04</totfact>
</mgrwt>
</event>
<event>
 7    0  0.4709932E-002  0.4111210E+03  0.7546771E-02  0.1039995E+00
         21   -1    0    0  502  501  0.00000000000E+00  0.00000000000E+00  0.56206718463E+03  0.56206718463E+03  0.00000000000E+00 0.  1.
         21   -1    0    0  501  502 -0.00000000000E+00 -0.00000000000E+00 -0.75178051603E+02  0.75178051603E+02  0.00000000000E+00 0.  1.
      99926    2    1    2    0    0  0.00000000000E+00  0.35527136788E-14  0.48688913303E+03  0.63724523623E+03  0.41112098371E+03 0.  0.
      99925    2    3    3    0    0 -0.56747658850E+02  0.17861450189E+02  0.28508608684E+03  0.39247737531E+03  0.26310660394E+03 0.  0.
         25    1    3    3    0    0  0.56747658850E+02 -0.17861450189E+02  0.20180304619E+03  0.24476786092E+03  0.12509000000E+03 0.  0.
         25    1    4    4    0    0 -0.20021930524E+02 -0.30593279704E+02  0.14778778964E+03  0.19704203950E+03  0.12509000000E+03 0.  0.
         25    1    4    4    0    0 -0.36725728326E+02  0.48454729893E+02  0.13729829719E+03  0.19543533581E+03  0.12509000000E+03 0.  0.
<mgrwt>
<rscale>  2 0.41112098E+03</rscale>
<asrwt>0</asrwt>
<pdfrwt beam="1">  1       21 0.82656937E-01 0.41112098E+03</pdfrwt>
<pdfrwt beam="2">  1       21 0.11055596E-01 0.41112098E+03</pdfrwt>
<totfact> 0.81057202E+04</totfact>
</mgrwt>
</event>
<event>
 7    0  0.4709932E-002  0.4599178E+03  0.7546771E-02  0.1024805E+00
         21   -1    0    0  502  501  0.00000000000E+00  0.00000000000E+00  0.29792743090E+03  0.29792743090E+03  0.00000000000E+00 0.  1.
         21   -1    0    0  501  502 -0.00000000000E+00 -0.00000000000E+00 -0.17749655106E+03  0.17749655106E+03  0.00000000000E+00 0.  1.
      99926    2    1    2    0    0  0.14210854715E-13  0.00000000000E+00  0.12043087984E+03  0.47542398196E+03  0.45991778157E+03 0.  0.
      99925    2    3    3    0    0 -0.74899111890E+02 -0.58440092815E+02  0.40925237037E+01  0.27995725175E+03  0.26331386718E+03 0.  0.
         25    1    3    3    0    0  0.74899111890E+02  0.58440092815E+02  0.11633835613E+03  0.19546673021E+03  0.12509000000E+03 0.  0.
         25    1    4    4    0    0 -0.70800748383E+01  0.57321676282E+00  0.10887177449E+02  0.12576364646E+03  0.12509000000E+03 0.  0.
         25    1    4    4    0    0 -0.67819037052E+02 -0.59013309578E+02 -0.67946537449E+01  0.15419360529E+03  0.12509000000E+03 0.  0.
<mgrwt>
<rscale>  2 0.45991778E+03</rscale>
<asrwt>0</asrwt>
<pdfrwt beam="1">  1       21 0.43812858E-01 0.45991778E+03</pdfrwt>
<pdfrwt beam="2">  1       21 0.26102434E-01 0.45991778E+03</pdfrwt>
<totfact> 0.64481682E+04</totfact>
</mgrwt>
</event>
<event>
 7    0  0.4709932E-002  0.4600448E+03  0.7546771E-02  0.1024768E+00
         21   -1    0    0  502  501  0.00000000000E+00  0.00000000000E+00  0.24399033200E+03  0.24399033200E+03  0.00000000000E+00 0.  1.
         21   -1    0    0  501  502 -0.00000000000E+00 -0.00000000000E+00 -0.21685411282E+03  0.21685411282E+03  0.00000000000E+00 0.  1.
      99926    2    1    2    0    0  0.00000000000E+00  0.00000000000E+00  0.27136219183E+02  0.46084444482E+03  0.46004481078E+03 0.  0.
      99925    2    3    3    0    0  0.90435876088E+02  0.21131419849E+02 -0.55950442109E+02  0.28427693372E+03  0.26278839108E+03 0.  0.
         25    1    3    3    0    0 -0.90435876088E+02 -0.21131419849E+02  0.83086661292E+02  0.17656751109E+03  0.12509000000E+03 0.  0.
         25    1    4    4    0    0  0.56162253349E+01  0.33081429908E+01 -0.38797838497E+02  0.13113072168E+03  0.12509000000E+03 0.  0.
         25    1    4    4    0    0  0.84819650754E+02  0.17823276858E+02 -0.17152603612E+02  0.15314621204E+03  0.12509000000E+03 0.  0.
<mgrwt>
<rscale>  2 0.46004481E+03</rscale>
<asrwt>0</asrwt>
<pdfrwt beam="1">  1       21 0.35880932E-01 0.46004481E+03</pdfrwt>
<pdfrwt beam="2">  1       21 0.31890310E-01 0.46004481E+03</pdfrwt>
<totfact> 0.65445542E+04</totfact>
</mgrwt>
</event>
<event>
 7    0  0.4709932E-002  0.4541280E+03  0.7546771E-02  0.1026498E+00
         21   -1    0    0  502  501  0.00000000000E+00  0.00000000000E+00  0.29451587489E+03  0.29451587489E+03  0.00000000000E+00 0.  1.
         21   -1    0    0  501  502 -0.00000000000E+00 -0.00000000000E+00 -0.17506038844E+03  0.17506038844E+03  0.00000000000E+00 0.  1.
      99926    2    1    2    0    0 -0.17763568394E-14  0.00000000000E+00  0.11945548645E+03  0.46957626333E+03  0.45412801482E+03 0.  0.
      99925    2    3    3    0    0  0.11921485302E+02  0.88642893492E+02  0.14573205126E+03  0.31357097388E+03  0.26284832227E+03 0.  0.
         25    1    4    4    0    0  0.22057624799E+02  0.80371716221E+02  0.95827013227E+02  0.17825957518E+03  0.12509000000E+03 0.  0.
         25    1    3    3    0    0 -0.11921485302E+02 -0.88642893492E+02 -0.26276564810E+02  0.15600528945E+03  0.12509000000E+03 0.  0.
         25    1    4    4    0    0 -0.10136139497E+02  0.82711772708E+01  0.49905038032E+02  0.13531139870E+03  0.12509000000E+03 0.  0.
<mgrwt>
<rscale>  2 0.45412801E+03</rscale>
<asrwt>0</asrwt>
<pdfrwt beam="1">  1       21 0.43311158E-01 0.45412801E+03</pdfrwt>
<pdfrwt beam="2">  1       21 0.25744175E-01 0.45412801E+03</pdfrwt>
<totfact> 0.67935974E+04</totfact>
</mgrwt>
</event>
<event>
 7    0  0.4709932E-002  0.4586519E+03  0.7546771E-02  0.1025173E+00
         21   -1    0    0  502  501  0.00000000000E+00  0.00000000000E+00  0.16910114805E+03  0.16910114805E+03  0.00000000000E+00 0.  1.
         21   -1    0    0  501  502 -0.00000000000E+00 -0.00000000000E+00 -0.31099956525E+03  0.31099956525E+03  0.00000000000E+00 0.  1.
      99926    2    1    2    0    0  0.00000000000E+00  0.00000000000E+00 -0.14189841720E+03  0.48010071331E+03  0.45865186592E+03 0.  0.
      99925    2    3    3    0    0  0.27993048514E+02 -0.38775878178E+02  0.22262764478E+02  0.26824325849E+03  0.26300501050E+03 0.  0.
         25    1    4    4    0    0  0.75657326798E+01  0.19388554318E+02 -0.12703360516E+01  0.12681592251E+03  0.12509000000E+03 0.  0.
         25    1    4    4    0    0  0.20427315834E+02 -0.58164432497E+02  0.23533100530E+02  0.14142733597E+03  0.12509000000E+03 0.  0.
         25    1    3    3    0    0 -0.27993048514E+02  0.38775878178E+02 -0.16416118168E+03  0.21185745482E+03  0.12509000000E+03 0.  0.
<mgrwt>
<rscale>  2 0.45865187E+03</rscale>
<asrwt>0</asrwt>
<pdfrwt beam="1">  1       21 0.24867816E-01 0.45865187E+03</pdfrwt>
<pdfrwt beam="2">  1       21 0.45735229E-01 0.45865187E+03</pdfrwt>
<totfact> 0.64794279E+04</totfact>
</mgrwt>
</event>
<event>
 7    0  0.4709932E-002  0.4512984E+03  0.7546771E-02  0.1027336E+00
         21   -1    0    0  502  501  0.00000000000E+00  0.00000000000E+00  0.10145201267E+03  0.10145201267E+03  0.00000000000E+00 0. -1.
         21   -1    0    0  501  502 -0.00000000000E+00 -0.00000000000E+00 -0.50188806468E+03  0.50188806468E+03  0.00000000000E+00 0. -1.
      99926    2    1    2    0    0  0.71054273576E-14  0.00000000000E+00 -0.40043605201E+03  0.60334007734E+03  0.45129836825E+03 0.  0.
      99925    2    3    3    0    0  0.49667531682E+02 -0.21665417778E+02 -0.12534293436E+03  0.29632218616E+03  0.26298238113E+03 0.  0.
         25    1    4    4    0    0 -0.14762018984E+02 -0.25701222274E+01 -0.68186634498E+02  0.14325309057E+03  0.12509000000E+03 0.  0.
         25    1    3    3    0    0 -0.49667531682E+02  0.21665417778E+02 -0.27509311765E+03  0.30701789119E+03  0.12509000000E+03 0.  0.
         25    1    4    4    0    0  0.64429550667E+02 -0.19095295550E+02 -0.57156299859E+02  0.15306909559E+03  0.12509000000E+03 0.  0.
<mgrwt>
<rscale>  2 0.45129837E+03</rscale>
<asrwt>0</asrwt>
<pdfrwt beam="1">  1       21 0.14919414E-01 0.45129837E+03</pdfrwt>
<pdfrwt beam="2">  1       21 0.73807068E-01 0.45129837E+03</pdfrwt>
<totfact> 0.60214853E+04</totfact>
</mgrwt>
</event>
<event>
 7    0  0.4709932E-002  0.4549634E+03  0.7546771E-02  0.1026252E+00
         21   -1    0    0  502  501  0.00000000000E+00  0.00000000000E+00  0.15882225934E+03  0.15882225934E+03  0.00000000000E+00 0.  1.
         21   -1    0    0  501  502 -0.00000000000E+00 -0.00000000000E+00 -0.32582290363E+03  0.32582290363E+03  0.00000000000E+00 0.  1.
      99926    2    1    2    0    0  0.71054273576E-14  0.00000000000E+00 -0.16700064429E+03  0.48464516297E+03  0.45496342578E+03 0.  0.
      99925    2    3    3    0    0  0.30649968012E+02  0.76163672011E+02 -0.18805249147E+03  0.33354581207E+03  0.26296148716E+03 0.  0.
         25    1    4    4    0    0  0.44018583102E+02  0.58116402400E+02 -0.73151814552E+02  0.16221543687E+03  0.12509000000E+03 0.  0.
         25    1    4    4    0    0 -0.13368615090E+02  0.18047269611E+02 -0.11490067692E+03  0.17133037520E+03  0.12509000000E+03 0.  0.
         25    1    3    3    0    0 -0.30649968012E+02 -0.76163672011E+02  0.21051847187E+02  0.15109935090E+03  0.12509000000E+03 0.  0.
<mgrwt>
<rscale>  2 0.45496343E+03</rscale>
<asrwt>0</asrwt>
<pdfrwt beam="1">  1       21 0.23356215E-01 0.45496343E+03</pdfrwt>
<pdfrwt beam="2">  1       21 0.47915133E-01 0.45496343E+03</pdfrwt>
<totfact> 0.66382765E+04</totfact>
</mgrwt>
</event>
<event>
 7    0  0.4709932E-002  0.4425559E+03  0.7546771E-02  0.1029965E+00
         21   -1    0    0  502  501  0.00000000000E+00  0.00000000000E+00  0.13894638892E+03  0.13894638892E+03  0.00000000000E+00 0. -1.
         21   -1    0    0  501  502 -0.00000000000E+00 -0.00000000000E+00 -0.35239433458E+03  0.35239433458E+03  0.00000000000E+00 0. -1.
      99926    2    1    2    0    0  0.00000000000E+00  0.17763568394E-14 -0.21344794566E+03  0.49134072349E+03  0.44255585078E+03 0.  0.
      99925    2    3    3    0    0  0.99041483724E+02 -0.14996251184E+02 -0.12147514060E+03  0.30656895071E+03  0.26304792093E+03 0.  0.
         25    1    3    3    0    0 -0.99041483724E+02  0.14996251184E+02 -0.91972805058E+02  0.18477177278E+03  0.12509000000E+03 0.  0.
         25    1    4    4    0    0  0.65661990573E+02  0.29960842219E+02 -0.61293809947E+02  0.15688718338E+03  0.12509000000E+03 0.  0.
         25    1    4    4    0    0  0.33379493151E+02 -0.44957093403E+02 -0.60181330653E+02  0.14968176732E+03  0.12509000000E+03 0.  0.
<mgrwt>
<rscale>  2 0.44255585E+03</rscale>
<asrwt>0</asrwt>
<pdfrwt beam="1">  1       21 0.20433293E-01 0.44255585E+03</pdfrwt>
<pdfrwt beam="2">  1       21 0.51822696E-01 0.44255585E+03</pdfrwt>
<totfact> 0.72814820E+04</totfact>
</mgrwt>
</event>
<event>
 7    0  0.4709932E-002  0.4571061E+03  0.7546771E-02  0.1025624E+00
         21   -1    0    0  502  501  0.00000000000E+00  0.00000000000E+00  0.15485885402E+03  0.15485885402E+03  0.00000000000E+00 0.  1.
         21   -1    0    0  501  502 -0.00000000000E+00 -0.00000000000E+00 -0.33731682961E+03  0.33731682961E+03  0.00000000000E+00 0.  1.
      99926    2    1    2    0    0 -0.71054273576E-14  0.00000000000E+00 -0.18245797560E+03  0.49217568363E+03  0.45710610442E+03 0.  0.
      99925    2    3    3    0    0  0.44925604283E+02 -0.10594955358E+03 -0.11223756104E+03  0.30826800966E+03  0.26303664735E+03 0.  0.
         25    1    3    3    0    0 -0.44925604283E+02  0.10594955358E+03 -0.70220414557E+02  0.18390767397E+03  0.12509000000E+03 0.  0.
         25    1    4    4    0    0 -0.16107091001E+01 -0.40312452422E+02 -0.19191832660E+02  0.13282892285E+03  0.12509000000E+03 0.  0.
         25    1    4    4    0    0  0.46536313383E+02 -0.65637101160E+02 -0.93045728382E+02  0.17543908681E+03  0.12509000000E+03 0.  0.
<mgrwt>
<rscale>  2 0.45710610E+03</rscale>
<asrwt>0</asrwt>
<pdfrwt beam="1">  1       21 0.22773361E-01 0.45710610E+03</pdfrwt>
<pdfrwt beam="2">  1       21 0.49605415E-01 0.45710610E+03</pdfrwt>
<totfact> 0.64734776E+04</totfact>
</mgrwt>
</event>
<event>
 7    0  0.4709932E-002  0.4539407E+03  0.7546771E-02  0.1026553E+00
         21   -1    0    0  502  501  0.00000000000E+00  0.00000000000E+00  0.84522237862E+03  0.84522237862E+03  0.00000000000E+00 0. -1.
         21   -1    0    0  501  502 -0.00000000000E+00 -0.00000000000E+00 -0.60949103407E+02  0.60949103407E+02  0.00000000000E+00 0. -1.
      99926    2    1    2    0    0  0.00000000000E+00  0.35527136788E-14  0.78427327522E+03  0.90617148203E+03  0.45394072810E+03 0.  0.
      99925    2    3    3    0    0 -0.90672384222E+02  0.16519221234E+02  0.62151296226E+03  0.68115416380E+03  0.26305563417E+03 0.  0.
         25    1    4    4    0    0 -0.37756288500E+02 -0.21101126609E+02  0.36831381386E+03  0.39137369412E+03  0.12509000000E+03 0.  0.
         25    1    3    3    0    0  0.90672384222E+02 -0.16519221234E+02  0.16276031295E+03  0.22501731823E+03  0.12509000000E+03 0.  0.
         25    1    4    4    0    0 -0.52916095723E+02  0.37620347843E+02  0.25319914840E+03  0.28978046968E+03  0.12509000000E+03 0.  0.
<mgrwt>
<rscale>  2 0.45394073E+03</rscale>
<asrwt>0</asrwt>
<pdfrwt beam="1">  1       21 0.12429740E+00 0.45394073E+03</pdfrwt>
<pdfrwt beam="2">  1       21 0.89631040E-02 0.45394073E+03</pdfrwt>
<totfact> 0.43326137E+04</totfact>
</mgrwt>
</event>
<event>
 7    0  0.4709932E-002  0.4521595E+03  0.7546771E-02  0.1027080E+00
         21   -1    0    0  502  501  0.00000000000E+00  0.00000000000E+00  0.16849767916E+02  0.16849767916E+02  0.00000000000E+00 0.  1.
         21   -1    0    0  501  502 -0.00000000000E+00 -0.00000000000E+00 -0.30333984275E+04  0.30333984275E+04  0.00000000000E+00 0.  1.
      99926    2    1    2    0    0 -0.35527136788E-14  0.14210854715E-13 -0.30165486596E+04  0.30502481954E+04  0.45215952715E+03 0.  0.
      99925    2    3    3    0    0  0.20316974859E+02 -0.10257368533E+03 -0.21432568847E+04  0.21618675492E+04  0.26303438194E+03 0.  0.
         25    1    4    4    0    0 -0.77389777393E+01 -0.45372914006E+02 -0.13216560541E+04  0.13283602022E+04  0.12509000000E+03 0.  0.
         25    1    3    3    0    0 -0.20316974859E+02  0.10257368533E+03 -0.87329177488E+03  0.88838064621E+03  0.12509000000E+03 0.  0.
         25    1    4    4    0    0  0.28055952598E+02 -0.57200771321E+02 -0.82160083056E+03  0.83350734705E+03  0.12509000000E+03 0.  0.
<mgrwt>
<rscale>  2 0.45215953E+03</rscale>
<asrwt>0</asrwt>
<pdfrwt beam="1">  1       21 0.24779047E-02 0.45215953E+03</pdfrwt>
<pdfrwt beam="2">  1       21 0.44608843E+00 0.45215953E+03</pdfrwt>
<totfact> 0.30439837E+03</totfact>
</mgrwt>
</event>
<event>
 7    0  0.4709932E-002  0.4701701E+03  0.7546771E-02  0.1021872E+00
         21   -1    0    0  502  501  0.00000000000E+00  0.00000000000E+00  0.37494038838E+02  0.37494038838E+02  0.00000000000E+00 0.  1.
         21   -1    0    0  501  502 -0.00000000000E+00 -0.00000000000E+00 -0.14739668736E+04  0.14739668736E+04  0.00000000000E+00 0.  1.
      99926    2    1    2    0    0  0.00000000000E+00  0.00000000000E+00 -0.14364728347E+04  0.15114609124E+04  0.47017005947E+03 0.  0.
      99925    2    3    3    0    0 -0.45215116714E+02  0.11713650254E+03 -0.95096585497E+03  0.99461480137E+03  0.26297752520E+03 0.  0.
         25    1    4    4    0    0  0.10622193045E+02  0.78075164845E+02 -0.44050208589E+03  0.46464842421E+03  0.12509000000E+03 0.  0.
         25    1    4    4    0    0 -0.55837309760E+02  0.39061337699E+02 -0.51046376909E+03  0.52996637715E+03  0.12509000000E+03 0.  0.
         25    1    3    3    0    0  0.45215116714E+02 -0.11713650254E+03 -0.48550697977E+03  0.51684611106E+03  0.12509000000E+03 0.  0.
<mgrwt>
<rscale>  2 0.47017006E+03</rscale>
<asrwt>0</asrwt>
<pdfrwt beam="1">  1       21 0.55138282E-02 0.47017006E+03</pdfrwt>
<pdfrwt beam="2">  1       21 0.21675988E+00 0.47017006E+03</pdfrwt>
<totfact> 0.20923584E+04</totfact>
</mgrwt>
</event>
<event>
 7    0  0.4709932E-002  0.4536777E+03  0.7546771E-02  0.1026631E+00
         21   -1    0    0  502  501  0.00000000000E+00  0.00000000000E+00  0.18680317968E+03  0.18680317968E+03  0.00000000000E+00 0.  1.
         21   -1    0    0  501  502 -0.00000000000E+00 -0.00000000000E+00 -0.27545496183E+03  0.27545496183E+03  0.00000000000E+00 0.  1.
      99926    2    1    2    0    0  0.00000000000E+00  0.00000000000E+00 -0.88651782146E+02  0.46225814151E+03  0.45367769497E+03 0.  0.
      99925    2    3    3    0    0 -0.70274177080E+02  0.85302333547E+02 -0.73587781856E+02  0.29465927433E+03  0.26304748286E+03 0.  0.
         25    1    4    4    0    0  0.57566719076E+01  0.34671502906E+02 -0.24927837266E+02  0.13230327870E+03  0.12509000000E+03 0.  0.
         25    1    4    4    0    0 -0.76030848988E+02  0.50630830641E+02 -0.48659944591E+02  0.16235599563E+03  0.12509000000E+03 0.  0.
         25    1    3    3    0    0  0.70274177080E+02 -0.85302333547E+02 -0.15064000289E+02  0.16759886717E+03  0.12509000000E+03 0.  0.
<mgrwt>
<rscale>  2 0.45367769E+03</rscale>
<asrwt>0</asrwt>
<pdfrwt beam="1">  1       21 0.27471056E-01 0.45367769E+03</pdfrwt>
<pdfrwt beam="2">  1       21 0.40508082E-01 0.45367769E+03</pdfrwt>
<totfact> 0.68733871E+04</totfact>
</mgrwt>
</event>
<event>
 7    0  0.4709932E-002  0.4586800E+03  0.7546771E-02  0.1025165E+00
         21   -1    0    0  502  501  0.00000000000E+00  0.00000000000E+00  0.56552684036E+03  0.56552684036E+03  0.00000000000E+00 0.  1.
         21   -1    0    0  501  502 -0.00000000000E+00 -0.00000000000E+00 -0.93005007347E+02  0.93005007347E+02  0.00000000000E+00 0.  1.
      99926    2    1    2    0    0 -0.17763568394E-14  0.00000000000E+00  0.47252183301E+03  0.65853184770E+03  0.45867996661E+03 0.  0.
      99925    2    3    3    0    0  0.10133203697E+01  0.67854876215E+02  0.43255287861E+03  0.51071325462E+03  0.26290820568E+03 0.  0.
         25    1    3    3    0    0 -0.10133203697E+01 -0.67854876215E+02  0.39968954403E+02  0.14781859308E+03  0.12509000000E+03 0.  0.
         25    1    4    4    0    0  0.39646783440E+02  0.24793411186E+02  0.20407907446E+03  0.24389005189E+03  0.12509000000E+03 0.  0.
         25    1    4    4    0    0 -0.38633463070E+02  0.43061465030E+02  0.22847380414E+03  0.26682320274E+03  0.12509000000E+03 0.  0.
<mgrwt>
<rscale>  2 0.45867997E+03</rscale>
<asrwt>0</asrwt>
<pdfrwt beam="1">  1       21 0.83165710E-01 0.45867997E+03</pdfrwt>
<pdfrwt beam="2">  1       21 0.13677207E-01 0.45867997E+03</pdfrwt>
<totfact> 0.53638705E+04</totfact>
</mgrwt>
</event>
<event>
 7    0  0.4709932E-002  0.4515596E+03  0.7546771E-02  0.1027258E+00
         21   -1    0    0  502  501  0.00000000000E+00  0.00000000000E+00  0.13255856555E+04  0.13255856555E+04  0.00000000000E+00 0. -1.
         21   -1    0    0  501  502 -0.00000000000E+00 -0.00000000000E+00 -0.38455843171E+02  0.38455843171E+02  0.00000000000E+00 0. -1.
      99926    2    1    2    0    0  0.71054273576E-14  0.71054273576E-14  0.12871298123E+04  0.13640414987E+04  0.45155958224E+03 0.  0.
      99925    2    3    3    0    0  0.56945301063E+02  0.44584885550E+02  0.10623249572E+04  0.10968050672E+04  0.26309021522E+03 0.  0.
         25    1    3    3    0    0 -0.56945301063E+02 -0.44584885550E+02  0.22480485513E+03  0.26723643151E+03  0.12509000000E+03 0.  0.
         25    1    4    4    0    0  0.69876293001E+02  0.20893205840E+02  0.57734407013E+03  0.59522508834E+03  0.12509000000E+03 0.  0.
         25    1    4    4    0    0 -0.12930991937E+02  0.23691679710E+02  0.48498088708E+03  0.50157997884E+03  0.12509000000E+03 0.  0.
<mgrwt>
<rscale>  2 0.45155958E+03</rscale>
<asrwt>0</asrwt>
<pdfrwt beam="1">  1       21 0.19493904E+00 0.45155958E+03</pdfrwt>
<pdfrwt beam="2">  1       21 0.56552719E-02 0.45155958E+03</pdfrwt>
<totfact> 0.28048799E+04</totfact>
</mgrwt>
</event>
<event>
 7    0  0.4709932E-002  0.4430018E+03  0.7546771E-02  0.1029830E+00
         21   -1    0    0  502  501  0.00000000000E+00  0.00000000000E+00  0.20569342253E+03  0.20569342253E+03  0.00000000000E+00 0.  1.
         21   -1    0    0  501  502 -0.00000000000E+00 -0.00000000000E+00 -0.23852316288E+03  0.23852316288E+03  0.00000000000E+00 0.  1.
      99926    2    1    2    0    0  0.00000000000E+00 -0.14210854715E-13 -0.32829740346E+02  0.44421658541E+03  0.44300178657E+03 0.  0.
      99925    2    3    3    0    0  0.17927351944E+02 -0.92423427386E+02 -0.59304903684E+02  0.28543395962E+03  0.26285355966E+03 0.  0.
         25    1    4    4    0    0  0.14251592725E+02 -0.42997792788E+02 -0.70233789398E+02  0.15044005900E+03  0.12509000000E+03 0.  0.
         25    1    3    3    0    0 -0.17927351944E+02  0.92423427386E+02  0.26475163338E+02  0.15878262579E+03  0.12509000000E+03 0.  0.
         25    1    4    4    0    0  0.36757592188E+01 -0.49425634599E+02  0.10928885714E+02  0.13499390062E+03  0.12509000000E+03 0.  0.
<mgrwt>
<rscale>  2 0.44300179E+03</rscale>
<asrwt>0</asrwt>
<pdfrwt beam="1">  1       21 0.30249033E-01 0.44300179E+03</pdfrwt>
<pdfrwt beam="2">  1       21 0.35076935E-01 0.44300179E+03</pdfrwt>
<totfact> 0.76399074E+04</totfact>
</mgrwt>
</event>
<event>
 7    0  0.4709932E-002  0.4259308E+03  0.7546771E-02  0.1035153E+00
         21   -1    0    0  502  501  0.00000000000E+00  0.00000000000E+00  0.16033135307E+03  0.16033135307E+03  0.00000000000E+00 0. -1.
         21   -1    0    0  501  502 -0.00000000000E+00 -0.00000000000E+00 -0.28287830783E+03  0.28287830783E+03  0.00000000000E+00 0. -1.
      99926    2    1    2    0    0  0.00000000000E+00 -0.71054273576E-14 -0.12254695476E+03  0.44320966091E+03  0.42593080119E+03 0.  0.
      99925    2    3    3    0    0  0.63106623462E+02 -0.47710560374E+02 -0.52669468200E+02  0.27953585505E+03  0.26288301178E+03 0.  0.
         25    1    3    3    0    0 -0.63106623462E+02  0.47710560374E+02 -0.69877486557E+02  0.16367380586E+03  0.12509000000E+03 0.  0.
         25    1    4    4    0    0  0.40553372307E+02  0.13951159318E+02 -0.13453422584E+02  0.13291995159E+03  0.12509000000E+03 0.  0.
         25    1    4    4    0    0  0.22553251155E+02 -0.61661719692E+02 -0.39216045617E+02  0.14661590346E+03  0.12509000000E+03 0.  0.
<mgrwt>
<rscale>  2 0.42593080E+03</rscale>
<asrwt>0</asrwt>
<pdfrwt beam="1">  1       21 0.23578140E-01 0.42593080E+03</pdfrwt>
<pdfrwt beam="2">  1       21 0.41599751E-01 0.42593080E+03</pdfrwt>
<totfact> 0.88112439E+04</totfact>
</mgrwt>
</event>
<event>
 7    0  0.4709932E-002  0.4310553E+03  0.7546771E-02  0.1033527E+00
         21   -1    0    0  502  501  0.00000000000E+00  0.00000000000E+00  0.20635907625E+03  0.20635907625E+03  0.00000000000E+00 0. -1.
         21   -1    0    0  501  502 -0.00000000000E+00 -0.00000000000E+00 -0.22510356069E+03  0.22510356069E+03  0.00000000000E+00 0. -1.
      99926    2    1    2    0    0  0.35527136788E-14  0.14210854715E-13 -0.18744484444E+02  0.43146263694E+03  0.43105527648E+03 0.  0.
      99925    2    3    3    0    0  0.19655565424E+02 -0.83752007450E+02 -0.34506888782E+02  0.27883006671E+03  0.26297288971E+03 0.  0.
         25    1    4    4    0    0 -0.12491453689E+02 -0.19065812867E+02 -0.42757973209E+02  0.13414653931E+03  0.12509000000E+03 0.  0.
         25    1    3    3    0    0 -0.19655565424E+02  0.83752007450E+02  0.15762404339E+02  0.15263257023E+03  0.12509000000E+03 0.  0.
         25    1    4    4    0    0  0.32147019114E+02 -0.64686194583E+02  0.82510844264E+01  0.14468352740E+03  0.12509000000E+03 0.  0.
<mgrwt>
<rscale>  2 0.43105528E+03</rscale>
<asrwt>0</asrwt>
<pdfrwt beam="1">  1       21 0.30346923E-01 0.43105528E+03</pdfrwt>
<pdfrwt beam="2">  1       21 0.33103465E-01 0.43105528E+03</pdfrwt>
<totfact> 0.85511971E+04</totfact>
</mgrwt>
</event>
<event>
 7    0  0.4709932E-002  0.4586855E+03  0.7546771E-02  0.1025163E+00
         21   -1    0    0  502  501  0.00000000000E+00  0.00000000000E+00  0.17069860489E+03  0.17069860489E+03  0.00000000000E+00 0. -1.
         21   -1    0    0  501  502 -0.00000000000E+00 -0.00000000000E+00 -0.30813424545E+03  0.30813424545E+03  0.00000000000E+00 0. -1.
      99926    2    1    2    0    0  0.00000000000E+00  0.00000000000E+00 -0.13743564056E+03  0.47883285035E+03  0.45868545135E+03 0.  0.
      99925    2    3    3    0    0 -0.89425221097E+02  0.73881370855E+02 -0.97970384010E+02  0.30373190317E+03  0.26305806533E+03 0.  0.
         25    1    4    4    0    0 -0.63540480866E+02  0.66724312897E+01 -0.27589627228E+02  0.14314541445E+03  0.12509000000E+03 0.  0.
         25    1    4    4    0    0 -0.25884740231E+02  0.67208939565E+02 -0.70380756782E+02  0.16058648872E+03  0.12509000000E+03 0.  0.
         25    1    3    3    0    0  0.89425221097E+02 -0.73881370855E+02 -0.39465256549E+02  0.17510094718E+03  0.12509000000E+03 0.  0.
<mgrwt>
<rscale>  2 0.45868545E+03</rscale>
<asrwt>0</asrwt>
<pdfrwt beam="1">  1       21 0.25102736E-01 0.45868545E+03</pdfrwt>
<pdfrwt beam="2">  1       21 0.45313859E-01 0.45868545E+03</pdfrwt>
<totfact> 0.64866973E+04</totfact>
</mgrwt>
</event>
<event>
 7    0  0.4709932E-002  0.4238712E+03  0.7546771E-02  0.1035814E+00
         21   -1    0    0  502  501  0.00000000000E+00  0.00000000000E+00  0.57007469302E+03  0.57007469302E+03  0.00000000000E+00 0. -1.
         21   -1    0    0  501  502 -0.00000000000E+00 -0.00000000000E+00 -0.78790912491E+02  0.78790912491E+02  0.00000000000E+00 0. -1.
      99926    2    1    2    0    0  0.00000000000E+00  0.00000000000E+00  0.49128378053E+03  0.64886560551E+03  0.42387123163E+03 0.  0.
      99925    2    3    3    0    0 -0.69306189530E+02 -0.37772261292E+02  0.29453152004E+03  0.40271717115E+03  0.26306313313E+03 0.  0.
         25    1    4    4    0    0 -0.17302139575E+02  0.15585335947E+02  0.16052484284E+03  0.20483652018E+03  0.12509000000E+03 0.  0.
         25    1    4    4    0    0 -0.52004049955E+02 -0.53357597239E+02  0.13400667720E+03  0.19788065097E+03  0.12509000000E+03 0.  0.
         25    1    3    3    0    0  0.69306189530E+02  0.37772261292E+02  0.19675226049E+03  0.24614843436E+03  0.12509000000E+03 0.  0.
<mgrwt>
<rscale>  2 0.42387123E+03</rscale>
<asrwt>0</asrwt>
<pdfrwt beam="1">  1       21 0.83834512E-01 0.42387123E+03</pdfrwt>
<pdfrwt beam="2">  1       21 0.11586899E-01 0.42387123E+03</pdfrwt>
<totfact> 0.71838908E+04</totfact>
</mgrwt>
</event>
<event>
 7    0  0.4709932E-002  0.4592887E+03  0.7546771E-02  0.1024988E+00
         21   -1    0    0  502  501  0.00000000000E+00  0.00000000000E+00  0.34979922193E+02  0.34979922193E+02  0.00000000000E+00 0.  1.
         21   -1    0    0  501  502 -0.00000000000E+00 -0.00000000000E+00 -0.15076226706E+04  0.15076226706E+04  0.00000000000E+00 0.  1.
      99926    2    1    2    0    0  0.00000000000E+00  0.00000000000E+00 -0.14726427484E+04  0.15426025928E+04  0.45928868357E+03 0.  0.
      99925    2    3    3    0    0 -0.77192739741E+02 -0.32570131896E+02 -0.11980605767E+04  0.12294534116E+04  0.26303424361E+03 0.  0.
         25    1    4    4    0    0 -0.32887565480E+02  0.23190378864E+02 -0.52792324734E+03  0.54403111015E+03  0.12509000000E+03 0.  0.
         25    1    3    3    0    0  0.77192739741E+02  0.32570131896E+02 -0.27458217175E+03  0.31314918123E+03  0.12509000000E+03 0.  0.
         25    1    4    4    0    0 -0.44305174261E+02 -0.55760510761E+02 -0.67013732934E+03  0.68542230143E+03  0.12509000000E+03 0.  0.
<mgrwt>
<rscale>  2 0.45928868E+03</rscale>
<asrwt>0</asrwt>
<pdfrwt beam="1">  1       21 0.51441065E-02 0.45928868E+03</pdfrwt>
<pdfrwt beam="2">  1       21 0.22170920E+00 0.45928868E+03</pdfrwt>
<totfact> 0.22011731E+04</totfact>
</mgrwt>
</event>
<event>
 7    0  0.4709932E-002  0.4541900E+03  0.7546771E-02  0.1026480E+00
         21   -1    0    0  502  501  0.00000000000E+00  0.00000000000E+00  0.42944388087E+02  0.42944388087E+02  0.00000000000E+00 0.  1.
         21   -1    0    0  501  502 -0.00000000000E+00 -0.00000000000E+00 -0.12009053210E+04  0.12009053210E+04  0.00000000000E+00 0.  1.
      99926    2    1    2    0    0  0.00000000000E+00 -0.14210854715E-13 -0.11579609329E+04  0.12438497091E+04  0.45419002262E+03 0.  0.
      99925    2    3    3    0    0  0.56601607491E+02 -0.81799495793E+02 -0.87278034651E+03  0.91693936291E+03  0.26293984580E+03 0.  0.
         25    1    3    3    0    0 -0.56601607491E+02  0.81799495793E+02 -0.28518058643E+03  0.32691034621E+03  0.12509000000E+03 0.  0.
         25    1    4    4    0    0  0.66909395335E+02 -0.51339019336E+02 -0.51044359734E+03  0.53227129949E+03  0.12509000000E+03 0.  0.
         25    1    4    4    0    0 -0.10307787843E+02 -0.30460476456E+02 -0.36233674917E+03  0.38466806342E+03  0.12509000000E+03 0.  0.
<mgrwt>
<rscale>  2 0.45419002E+03</rscale>
<asrwt>0</asrwt>
<pdfrwt beam="1">  1       21 0.63153522E-02 0.45419002E+03</pdfrwt>
<pdfrwt beam="2">  1       21 0.17660369E+00 0.45419002E+03</pdfrwt>
<totfact> 0.30984924E+04</totfact>
</mgrwt>
</event>
<event>
 7    0  0.4709932E-002  0.4384242E+03  0.7546771E-02  0.1031231E+00
         21   -1    0    0  502  501  0.00000000000E+00  0.00000000000E+00  0.34807805945E+03  0.34807805945E+03  0.00000000000E+00 0. -1.
         21   -1    0    0  501  502 -0.00000000000E+00 -0.00000000000E+00 -0.13805508108E+03  0.13805508108E+03  0.00000000000E+00 0. -1.
      99926    2    1    2    0    0 -0.35527136788E-14  0.00000000000E+00  0.21002297837E+03  0.48613314054E+03  0.43842419970E+03 0.  0.
      99925    2    3    3    0    0 -0.89324499754E+01 -0.88809558548E+02  0.17590746923E+03  0.32872188803E+03  0.26295953222E+03 0.  0.
         25    1    3    3    0    0  0.89324499754E+01  0.88809558548E+02  0.34115509145E+02  0.15741125251E+03  0.12509000000E+03 0.  0.
         25    1    4    4    0    0  0.30551090007E+02 -0.24461819668E+02  0.93230697573E+02  0.16084533189E+03  0.12509000000E+03 0.  0.
         25    1    4    4    0    0 -0.39483539982E+02 -0.64347738880E+02  0.82676771654E+02  0.16787655613E+03  0.12509000000E+03 0.  0.
<mgrwt>
<rscale>  2 0.43842420E+03</rscale>
<asrwt>0</asrwt>
<pdfrwt beam="1">  1       21 0.51187950E-01 0.43842420E+03</pdfrwt>
<pdfrwt beam="2">  1       21 0.20302218E-01 0.43842420E+03</pdfrwt>
<totfact> 0.75742935E+04</totfact>
</mgrwt>
</event>
<event>
 7    0  0.4709932E-002  0.4496825E+03  0.7546771E-02  0.1027817E+00
         21   -1    0    0  502  501  0.00000000000E+00  0.00000000000E+00  0.55055817795E+03  0.55055817795E+03  0.00000000000E+00 0.  1.
         21   -1    0    0  501  502 -0.00000000000E+00 -0.00000000000E+00 -0.91822446154E+02  0.91822446154E+02  0.00000000000E+00 0.  1.
      99926    2    1    2    0    0  0.00000000000E+00  0.00000000000E+00  0.45873573180E+03  0.64238062411E+03  0.44968254869E+03 0.  0.
      99925    2    3    3    0    0 -0.10251879797E+03  0.57587303855E+01  0.23698079056E+03  0.36785188431E+03  0.26193863171E+03 0.  0.
         25    1    3    3    0    0  0.10251879797E+03 -0.57587303855E+01  0.22175494124E+03  0.27452873980E+03  0.12509000000E+03 0.  0.
         25    1    4    4    0    0 -0.57096718244E+02  0.33730055586E+02  0.15083533072E+03  0.20687328725E+03  0.12509000000E+03 0.  0.
         25    1    4    4    0    0 -0.45422079723E+02 -0.27971325200E+02  0.86145459844E+02  0.16097859706E+03  0.12509000000E+03 0.  0.
<mgrwt>
<rscale>  2 0.44968255E+03</rscale>
<asrwt>0</asrwt>
<pdfrwt beam="1">  1       21 0.80964437E-01 0.44968255E+03</pdfrwt>
<pdfrwt beam="2">  1       21 0.13503301E-01 0.44968255E+03</pdfrwt>
<totfact> 0.58561282E+04</totfact>
</mgrwt>
</event>
<event>
 7    0  0.4709932E-002  0.4585880E+03  0.7546771E-02  0.1025192E+00
         21   -1    0    0  502  501  0.00000000000E+00  0.00000000000E+00  0.24771032504E+03  0.24771032504E+03  0.00000000000E+00 0. -1.
         21   -1    0    0  501  502 -0.00000000000E+00 -0.00000000000E+00 -0.21224689632E+03  0.21224689632E+03  0.00000000000E+00 0. -1.
      99926    2    1    2    0    0  0.00000000000E+00  0.00000000000E+00  0.35463428715E+02  0.45995722136E+03  0.45858804030E+03 0.  0.
      99925    2    3    3    0    0  0.71291532859E+02  0.28189132299E+02  0.11021725468E+03  0.29529771682E+03  0.26301290557E+03 0.  0.
         25    1    4    4    0    0  0.67320383886E+02  0.37325179458E+02  0.75248554810E+02  0.16503047055E+03  0.12509000000E+03 0.  0.
         25    1    4    4    0    0  0.39711489723E+01 -0.91360471593E+01  0.34968699868E+02  0.13026724628E+03  0.12509000000E+03 0.  0.
         25    1    3    3    0    0 -0.71291532859E+02 -0.28189132299E+02 -0.74753825962E+02  0.16465950453E+03  0.12509000000E+03 0.  0.
<mgrwt>
<rscale>  2 0.45858804E+03</rscale>
<asrwt>0</asrwt>
<pdfrwt beam="1">  1       21 0.36427989E-01 0.45858804E+03</pdfrwt>
<pdfrwt beam="2">  1       21 0.31212779E-01 0.45858804E+03</pdfrwt>
<totfact> 0.66266683E+04</totfact>
</mgrwt>
</event>
<event>
 7    0  0.4709932E-002  0.4781348E+03  0.7546771E-02  0.1019649E+00
         21   -1    0    0  502  501  0.00000000000E+00  0.00000000000E+00  0.10290174243E+03  0.10290174243E+03  0.00000000000E+00 0.  1.
         21   -1    0    0  501  502 -0.00000000000E+00 -0.00000000000E+00 -0.55541544888E+03  0.55541544888E+03  0.00000000000E+00 0.  1.
      99926    2    1    2    0    0  0.00000000000E+00 -0.71054273576E-14 -0.45251370645E+03  0.65831719132E+03  0.47813478210E+03 0.  0.
      99925    2    3    3    0    0 -0.40935328783E+02 -0.54922665404E+02 -0.43733262157E+03  0.51489413265E+03  0.26299039076E+03 0.  0.
         25    1    4    4    0    0 -0.12097999917E+02 -0.63880819196E+02 -0.19653880813E+03  0.24187213950E+03  0.12509000000E+03 0.  0.
         25    1    4    4    0    0 -0.28837328866E+02  0.89581537923E+01 -0.24079381345E+03  0.27302199316E+03  0.12509000000E+03 0.  0.
         25    1    3    3    0    0  0.40935328783E+02  0.54922665404E+02 -0.15181084878E+02  0.14342305866E+03  0.12509000000E+03 0.  0.
<mgrwt>
<rscale>  2 0.47813478E+03</rscale>
<asrwt>0</asrwt>
<pdfrwt beam="1">  1       21 0.15132609E-01 0.47813478E+03</pdfrwt>
<pdfrwt beam="2">  1       21 0.81678743E-01 0.47813478E+03</pdfrwt>
<totfact> 0.46198608E+04</totfact>
</mgrwt>
</event>
<event>
 7    0  0.4709932E-002  0.4580698E+03  0.7546771E-02  0.1025343E+00
         21   -1    0    0  502  501  0.00000000000E+00  0.00000000000E+00  0.18295507210E+03  0.18295507210E+03  0.00000000000E+00 0.  1.
         21   -1    0    0  501  502 -0.00000000000E+00 -0.00000000000E+00 -0.28672059938E+03  0.28672059938E+03  0.00000000000E+00 0.  1.
      99926    2    1    2    0    0  0.00000000000E+00  0.00000000000E+00 -0.10376552727E+03  0.46967567148E+03  0.45806981098E+03 0.  0.
      99925    2    3    3    0    0  0.88058266454E+02 -0.19773339014E+02  0.95200076571E+01  0.27829551642E+03  0.26308272594E+03 0.  0.
         25    1    4    4    0    0  0.65079299512E+01 -0.28609172479E+02  0.14787920956E+01  0.12849331822E+03  0.12509000000E+03 0.  0.
         25    1    4    4    0    0  0.81550336503E+02  0.88358334654E+01  0.80412155615E+01  0.14980219820E+03  0.12509000000E+03 0.  0.
         25    1    3    3    0    0 -0.88058266454E+02  0.19773339014E+02 -0.11328553493E+03  0.19138015506E+03  0.12509000000E+03 0.  0.
<mgrwt>
<rscale>  2 0.45806981E+03</rscale>
<asrwt>0</asrwt>
<pdfrwt beam="1">  1       21 0.26905158E-01 0.45806981E+03</pdfrwt>
<pdfrwt beam="2">  1       21 0.42164793E-01 0.45806981E+03</pdfrwt>
<totfact> 0.65842144E+04</totfact>
</mgrwt>
</event>
<event>
 7    0  0.4709932E-002  0.4059231E+03  0.7546771E-02  0.1041748E+00
         21   -1    0    0  502  501  0.00000000000E+00  0.00000000000E+00  0.47765781925E+03  0.47765781925E+03  0.00000000000E+00 0. -1.
         21   -1    0    0  501  502 -0.00000000000E+00 -0.00000000000E+00 -0.86240374694E+02  0.86240374694E+02  0.00000000000E+00 0. -1.
      99926    2    1    2    0    0  0.35527136788E-14  0.00000000000E+00  0.39141744455E+03  0.56389819394E+03  0.40592309275E+03 0.  0.
      99925    2    3    3    0    0  0.27347476630E+02  0.17259943606E+02  0.19594511435E+03  0.32958487783E+03  0.26303215341E+03 0.  0.
         25    1    3    3    0    0 -0.27347476630E+02 -0.17259943606E+02  0.19547233021E+03  0.23431331611E+03  0.12509000000E+03 0.  0.
         25    1    4    4    0    0  0.23763078057E+01 -0.14552339509E+02  0.13514628979E+03  0.18474156319E+03  0.12509000000E+03 0.  0.
         25    1    4    4    0    0  0.24971168824E+02  0.31812283115E+02  0.60798824554E+02  0.14484331464E+03  0.12509000000E+03 0.  0.
<mgrwt>
<rscale>  2 0.40592309E+03</rscale>
<asrwt>0</asrwt>
<pdfrwt beam="1">  1       21 0.70243796E-01 0.40592309E+03</pdfrwt>
<pdfrwt beam="2">  1       21 0.12682408E-01 0.40592309E+03</pdfrwt>
<totfact> 0.91689888E+04</totfact>
</mgrwt>
</event>
<event>
 7    0  0.4709932E-002  0.4532088E+03  0.7546771E-02  0.1026769E+00
         21   -1    0    0  502  501  0.00000000000E+00  0.00000000000E+00  0.13075780936E+04  0.13075780936E+04  0.00000000000E+00 0. -1.
         21   -1    0    0  501  502 -0.00000000000E+00 -0.00000000000E+00 -0.39270740672E+02  0.39270740672E+02  0.00000000000E+00 0. -1.
      99926    2    1    2    0    0 -0.71054273576E-14  0.00000000000E+00  0.12683073529E+04  0.13468488343E+04  0.45320882702E+03 0.  0.
      99925    2    3    3    0    0  0.41608583471E+02 -0.10318596048E+03  0.81057074860E+03  0.85945892496E+03  0.26318451426E+03 0.  0.
         25    1    4    4    0    0 -0.11243084545E+02 -0.26362891581E+02  0.32417027870E+03  0.34864779749E+03  0.12509000000E+03 0.  0.
         25    1    3    3    0    0 -0.41608583471E+02  0.10318596048E+03  0.45773660432E+03  0.48738990930E+03  0.12509000000E+03 0.  0.
         25    1    4    4    0    0  0.52851668016E+02 -0.76823068896E+02  0.48640046991E+03  0.51081112747E+03  0.12509000000E+03 0.  0.
<mgrwt>
<rscale>  2 0.45320883E+03</rscale>
<asrwt>0</asrwt>
<pdfrwt beam="1">  1       21 0.19229087E+00 0.45320883E+03</pdfrwt>
<pdfrwt beam="2">  1       21 0.57751098E-02 0.45320883E+03</pdfrwt>
<totfact> 0.28173665E+04</totfact>
</mgrwt>
</event>
<event>
 7    0  0.4709932E-002  0.4499520E+03  0.7546771E-02  0.1027736E+00
         21   -1    0    0  502  501  0.00000000000E+00  0.00000000000E+00  0.26257920396E+03  0.26257920396E+03  0.00000000000E+00 0. -1.
         21   -1    0    0  501  502 -0.00000000000E+00 -0.00000000000E+00 -0.19275786317E+03  0.19275786317E+03  0.00000000000E+00 0. -1.
      99926    2    1    2    0    0  0.17763568394E-14  0.00000000000E+00  0.69821340786E+02  0.45533706713E+03  0.44995202530E+03 0.  0.
      99925    2    3    3    0    0 -0.93133831671E+01  0.51453985677E+02 -0.51869863324E+02  0.27315444170E+03  0.26303728738E+03 0.  0.
         25    1    4    4    0    0 -0.41727984223E+02  0.90224842420E+01 -0.25598654733E+02  0.13463071386E+03  0.12509000000E+03 0.  0.
         25    1    3    3    0    0  0.93133831671E+01 -0.51453985677E+02  0.12169120411E+03  0.18218262542E+03  0.12509000000E+03 0.  0.
         25    1    4    4    0    0  0.32414601056E+02  0.42431501435E+02 -0.26271208592E+02  0.13852372785E+03  0.12509000000E+03 0.  0.
<mgrwt>
<rscale>  2 0.44995203E+03</rscale>
<asrwt>0</asrwt>
<pdfrwt beam="1">  1       21 0.38614589E-01 0.44995203E+03</pdfrwt>
<pdfrwt beam="2">  1       21 0.28346745E-01 0.44995203E+03</pdfrwt>
<totfact> 0.71351019E+04</totfact>
</mgrwt>
</event>
<event>
 7    0  0.4709932E-002  0.4546614E+03  0.7546771E-02  0.1026341E+00
         21   -1    0    0  502  501  0.00000000000E+00  0.00000000000E+00  0.31631956921E+03  0.31631956921E+03  0.00000000000E+00 0.  1.
         21   -1    0    0  501  502 -0.00000000000E+00 -0.00000000000E+00 -0.16337667589E+03  0.16337667589E+03  0.00000000000E+00 0.  1.
      99926    2    1    2    0    0  0.00000000000E+00  0.00000000000E+00  0.15294289332E+03  0.47969624510E+03  0.45466136733E+03 0.  0.
      99925    2    3    3    0    0  0.70257501063E+02 -0.83106175218E+02  0.65507298522E+02  0.29225226906E+03  0.26320605957E+03 0.  0.
         25    1    4    4    0    0  0.57333565290E+02 -0.79525893502E+02  0.33156931665E+02  0.16235268912E+03  0.12509000000E+03 0.  0.
         25    1    4    4    0    0  0.12923935773E+02 -0.35802817162E+01  0.32350366857E+02  0.12989957994E+03  0.12509000000E+03 0.  0.
         25    1    3    3    0    0 -0.70257501063E+02  0.83106175218E+02  0.87435594799E+02  0.18744397604E+03  0.12509000000E+03 0.  0.
<mgrwt>
<rscale>  2 0.45466137E+03</rscale>
<asrwt>0</asrwt>
<pdfrwt beam="1">  1       21 0.46517584E-01 0.45466137E+03</pdfrwt>
<pdfrwt beam="2">  1       21 0.24025982E-01 0.45466137E+03</pdfrwt>
<totfact> 0.66901857E+04</totfact>
</mgrwt>
</event>
<event>
 7    0  0.4709932E-002  0.4544737E+03  0.7546771E-02  0.1026396E+00
         21   -1    0    0  502  501  0.00000000000E+00  0.00000000000E+00  0.23375668546E+02  0.23375668546E+02  0.00000000000E+00 0.  1.
         21   -1    0    0  501  502 -0.00000000000E+00 -0.00000000000E+00 -0.22089888704E+04  0.22089888704E+04  0.00000000000E+00 0.  1.
      99926    2    1    2    0    0  0.44408920985E-15  0.00000000000E+00 -0.21856132018E+04  0.22323645389E+04  0.45447372490E+03 0.  0.
      99925    2    3    3    0    0 -0.22130115166E+01 -0.11220985918E+03 -0.13417199691E+04  0.13718999864E+04  0.26325111035E+03 0.  0.
         25    1    3    3    0    0  0.22130115166E+01  0.11220985918E+03 -0.84389323268E+03  0.86046455254E+03  0.12509000000E+03 0.  0.
         25    1    4    4    0    0  0.70713953629E+00 -0.99925845439E+02 -0.78489599080E+03  0.80105861153E+03  0.12509000000E+03 0.  0.
         25    1    4    4    0    0 -0.29201510529E+01 -0.12284013743E+02 -0.55682397835E+03  0.57084137485E+03  0.12509000000E+03 0.  0.
<mgrwt>
<rscale>  2 0.45447372E+03</rscale>
<asrwt>0</asrwt>
<pdfrwt beam="1">  1       21 0.34375987E-02 0.45447372E+03</pdfrwt>
<pdfrwt beam="2">  1       21 0.32485127E+00 0.45447372E+03</pdfrwt>
<totfact> 0.10315613E+04</totfact>
</mgrwt>
</event>
<event>
 7    0  0.4709932E-002  0.4498093E+03  0.7546771E-02  0.1027779E+00
         21   -1    0    0  502  501  0.00000000000E+00  0.00000000000E+00  0.68859609150E+03  0.68859609150E+03  0.00000000000E+00 0. -1.
         21   -1    0    0  501  502 -0.00000000000E+00 -0.00000000000E+00 -0.73456868111E+02  0.73456868111E+02  0.00000000000E+00 0. -1.
      99926    2    1    2    0    0  0.35527136788E-14 -0.35527136788E-14  0.61513922339E+03  0.76205295961E+03  0.44980934750E+03 0.  0.
      99925    2    3    3    0    0 -0.25880394912E+02  0.20142224423E+02  0.56370721674E+03  0.62288305103E+03  0.26294859766E+03 0.  0.
         25    1    4    4    0    0 -0.18864515545E+02 -0.10981221480E+02  0.19959563868E+03  0.23656370020E+03  0.12509000000E+03 0.  0.
         25    1    4    4    0    0 -0.70158793677E+01  0.31123445903E+02  0.36411157806E+03  0.38631935083E+03  0.12509000000E+03 0.  0.
         25    1    3    3    0    0  0.25880394912E+02 -0.20142224423E+02  0.51432006642E+02  0.13916990857E+03  0.12509000000E+03 0.  0.
<mgrwt>
<rscale>  2 0.44980935E+03</rscale>
<asrwt>0</asrwt>
<pdfrwt beam="1">  1       21 0.10126413E+00 0.44980935E+03</pdfrwt>
<pdfrwt beam="2">  1       21 0.10802481E-01 0.44980935E+03</pdfrwt>
<totfact> 0.51730857E+04</totfact>
</mgrwt>
</event>
<event>
 7    0  0.4709932E-002  0.4397192E+03  0.7546771E-02  0.1030833E+00
         21   -1    0    0  502  501  0.00000000000E+00  0.00000000000E+00  0.18865917894E+03  0.18865917894E+03  0.00000000000E+00 0.  1.
         21   -1    0    0  501  502 -0.00000000000E+00 -0.00000000000E+00 -0.25621991805E+03  0.25621991805E+03  0.00000000000E+00 0.  1.
      99926    2    1    2    0    0  0.53290705182E-14 -0.14210854715E-13 -0.67560739110E+02  0.44487909699E+03  0.43971918024E+03 0.  0.
      99925    2    3    3    0    0 -0.15105464719E+02  0.85150411158E+02  0.41882952956E+01  0.27672975972E+03  0.26283654714E+03 0.  0.
         25    1    4    4    0    0  0.27466639338E+02  0.22075825367E+02  0.86221969140E+01  0.13024441916E+03  0.12509000000E+03 0.  0.
         25    1    4    4    0    0 -0.42572104057E+02  0.63074585792E+02 -0.44339016183E+01  0.14648534056E+03  0.12509000000E+03 0.  0.
         25    1    3    3    0    0  0.15105464719E+02 -0.85150411158E+02 -0.71749034406E+02  0.16814933727E+03  0.12509000000E+03 0.  0.
<mgrwt>
<rscale>  2 0.43971918E+03</rscale>
<asrwt>0</asrwt>
<pdfrwt beam="1">  1       21 0.27743997E-01 0.43971918E+03</pdfrwt>
<pdfrwt beam="2">  1       21 0.37679399E-01 0.43971918E+03</pdfrwt>
<totfact> 0.78426886E+04</totfact>
</mgrwt>
</event>
<event>
 7    0  0.4709932E-002  0.4472846E+03  0.7546771E-02  0.1028535E+00
         21   -1    0    0  502  501  0.00000000000E+00  0.00000000000E+00  0.21480432740E+03  0.21480432740E+03  0.00000000000E+00 0.  1.
         21   -1    0    0  501  502 -0.00000000000E+00 -0.00000000000E+00 -0.23284394777E+03  0.23284394777E+03  0.00000000000E+00 0.  1.
      99926    2    1    2    0    0  0.00000000000E+00  0.00000000000E+00 -0.18039620374E+02  0.44764827517E+03  0.44728464132E+03 0.  0.
      99925    2    3    3    0    0  0.38284915822E+02  0.98168657887E+02 -0.22437055121E+01  0.28333199723E+03  0.26300031610E+03 0.  0.
         25    1    3    3    0    0 -0.38284915822E+02 -0.98168657887E+02 -0.15795914862E+02  0.16431627794E+03  0.12509000000E+03 0.  0.
         25    1    4    4    0    0 -0.21524635270E+01  0.63894487746E+02  0.30119070441E+02  0.14367256233E+03  0.12509000000E+03 0.  0.
         25    1    4    4    0    0  0.40437379349E+02  0.34274170141E+02 -0.32362775953E+02  0.13965943489E+03  0.12509000000E+03 0.  0.
<mgrwt>
<rscale>  2 0.44728464E+03</rscale>
<asrwt>0</asrwt>
<pdfrwt beam="1">  1       21 0.31588872E-01 0.44728464E+03</pdfrwt>
<pdfrwt beam="2">  1       21 0.34241757E-01 0.44728464E+03</pdfrwt>
<totfact> 0.73509897E+04</totfact>
</mgrwt>
</event>
<event>
 7    0  0.4709932E-002  0.4505589E+03  0.7546771E-02  0.1027555E+00
         21   -1    0    0  502  501  0.00000000000E+00  0.00000000000E+00  0.70938767648E+03  0.70938767648E+03  0.00000000000E+00 0. -1.
         21   -1    0    0  501  502 -0.00000000000E+00 -0.00000000000E+00 -0.71541758043E+02  0.71541758043E+02  0.00000000000E+00 0. -1.
      99926    2    1    2    0    0  0.14210854715E-13  0.00000000000E+00  0.63784591843E+03  0.78092943452E+03  0.45055894846E+03 0.  0.
      99925    2    3    3    0    0 -0.87382557588E+02 -0.62941894779E+02  0.37467109171E+03  0.47027546141E+03  0.26302697419E+03 0.  0.
         25    1    4    4    0    0 -0.58858733551E+02 -0.17150240150E+02  0.13161816609E+03  0.19164897860E+03  0.12509000000E+03 0.  0.
         25    1    3    3    0    0  0.87382557588E+02  0.62941894779E+02  0.26317482672E+03  0.31065397311E+03  0.12509000000E+03 0.  0.
         25    1    4    4    0    0 -0.28523824037E+02 -0.45791654629E+02  0.24305292562E+03  0.27862648281E+03  0.12509000000E+03 0.  0.
<mgrwt>
<rscale>  2 0.45055895E+03</rscale>
<asrwt>0</asrwt>
<pdfrwt beam="1">  1       21 0.10432171E+00 0.45055895E+03</pdfrwt>
<pdfrwt beam="2">  1       21 0.10520847E-01 0.45055895E+03</pdfrwt>
<totfact> 0.50436396E+04</totfact>
</mgrwt>
</event>
<event>
 7    0  0.4709932E-002  0.4553032E+03  0.7546771E-02  0.1026152E+00
         21   -1    0    0  502  501  0.00000000000E+00  0.00000000000E+00  0.46040877432E+03  0.46040877432E+03  0.00000000000E+00 0.  1.
         21   -1    0    0  501  502 -0.00000000000E+00 -0.00000000000E+00 -0.11256354733E+03  0.11256354733E+03  0.00000000000E+00 0.  1.
      99926    2    1    2    0    0  0.14210854715E-13  0.14210854715E-13  0.34784522698E+03  0.57297232165E+03  0.45530317311E+03 0.  0.
      99925    2    3    3    0    0 -0.60248646319E+02 -0.85727519569E+02  0.27351218546E+03  0.39366248880E+03  0.26302496555E+03 0.  0.
         25    1    3    3    0    0  0.60248646319E+02  0.85727519569E+02  0.74333041529E+02  0.17930983285E+03  0.12509000000E+03 0.  0.
         25    1    4    4    0    0 -0.66533367917E+02 -0.26254453416E+02  0.14959298567E+03  0.20770545210E+03  0.12509000000E+03 0.  0.
         25    1    4    4    0    0  0.62847215984E+01 -0.59473066153E+02  0.12391919978E+03  0.18595703670E+03  0.12509000000E+03 0.  0.
<mgrwt>
<rscale>  2 0.45530317E+03</rscale>
<asrwt>0</asrwt>
<pdfrwt beam="1">  1       21 0.67707172E-01 0.45530317E+03</pdfrwt>
<pdfrwt beam="2">  1       21 0.16553463E-01 0.45530317E+03</pdfrwt>
<totfact> 0.60229004E+04</totfact>
</mgrwt>
</event>
<event>
 7    0  0.4709932E-002  0.4485968E+03  0.7546771E-02  0.1028141E+00
         21   -1    0    0  502  501  0.00000000000E+00  0.00000000000E+00  0.63297243068E+02  0.63297243068E+02  0.00000000000E+00 0. -1.
         21   -1    0    0  501  502 -0.00000000000E+00 -0.00000000000E+00 -0.79481779722E+03  0.79481779722E+03  0.00000000000E+00 0. -1.
      99926    2    1    2    0    0  0.00000000000E+00  0.00000000000E+00 -0.73152055415E+03  0.85811504029E+03  0.44859681366E+03 0.  0.
      99925    2    3    3    0    0  0.92312129690E+02 -0.54175347266E+02 -0.46315489951E+03  0.54327519175E+03  0.26301896412E+03 0.  0.
         25    1    3    3    0    0 -0.92312129690E+02  0.54175347266E+02 -0.26836565464E+03  0.31483984854E+03  0.12509000000E+03 0.  0.
         25    1    4    4    0    0  0.26574480778E+02 -0.61458107948E+02 -0.24926811274E+03  0.28681945922E+03  0.12509000000E+03 0.  0.
         25    1    4    4    0    0  0.65737648912E+02  0.72827606814E+01 -0.21388678678E+03  0.25645573253E+03  0.12509000000E+03 0.  0.
<mgrwt>
<rscale>  2 0.44859681E+03</rscale>
<asrwt>0</asrwt>
<pdfrwt beam="1">  1       21 0.93084181E-02 0.44859681E+03</pdfrwt>
<pdfrwt beam="2">  1       21 0.11688497E+00 0.44859681E+03</pdfrwt>
<totfact> 0.47415402E+04</totfact>
</mgrwt>
</event>
<event>
 7    0  0.4709932E-002  0.4582855E+03  0.7546771E-02  0.1025280E+00
         21   -1    0    0  502  501  0.00000000000E+00  0.00000000000E+00  0.13719144973E+04  0.13719144973E+04  0.00000000000E+00 0. -1.
         21   -1    0    0  501  502 -0.00000000000E+00 -0.00000000000E+00 -0.38272355809E+02  0.38272355809E+02  0.00000000000E+00 0. -1.
      99926    2    1    2    0    0 -0.71054273576E-14  0.00000000000E+00  0.13336421415E+04  0.14101868531E+04  0.45828549957E+03 0.  0.
      99925    2    3    3    0    0 -0.44594018138E+02 -0.62673018079E+02  0.56825692273E+03  0.63084188787E+03  0.26292398827E+03 0.  0.
         25    1    4    4    0    0 -0.99456225628E+01 -0.70195209923E+02  0.28822486628E+03  0.32209837712E+03  0.12509000000E+03 0.  0.
         25    1    3    3    0    0  0.44594018138E+02  0.62673018079E+02  0.76538521875E+03  0.77934496523E+03  0.12509000000E+03 0.  0.
         25    1    4    4    0    0 -0.34648395576E+02  0.75221918444E+01  0.28003205645E+03  0.30874351074E+03  0.12509000000E+03 0.  0.
<mgrwt>
<rscale>  2 0.45828550E+03</rscale>
<asrwt>0</asrwt>
<pdfrwt beam="1">  1       21 0.20175210E+00 0.45828550E+03</pdfrwt>
<pdfrwt beam="2">  1       21 0.56282885E-02 0.45828550E+03</pdfrwt>
<totfact> 0.25406929E+04</totfact>
</mgrwt>
</event>
<event>
 7    0  0.4709932E-002  0.4541511E+03  0.7546771E-02  0.1026491E+00
         21   -1    0    0  502  501  0.00000000000E+00  0.00000000000E+00  0.53857434072E+02  0.53857434072E+02  0.00000000000E+00 0. -1.
         21   -1    0    0  501  502 -0.00000000000E+00 -0.00000000000E+00 -0.95740387832E+03  0.95740387832E+03  0.00000000000E+00 0. -1.
      99926    2    1    2    0    0  0.00000000000E+00 -0.35527136788E-14 -0.90354644425E+03  0.10112613124E+04  0.45415114778E+03 0.  0.
      99925    2    3    3    0    0 -0.84531314168E+02  0.25204494958E+02 -0.72409418888E+03  0.77539815355E+03  0.26296215036E+03 0.  0.
         25    1    3    3    0    0  0.84531314168E+02 -0.25204494958E+02 -0.17945225537E+03  0.23586315884E+03  0.12509000000E+03 0.  0.
         25    1    4    4    0    0 -0.19431538911E+02 -0.12575147497E+02 -0.40464925089E+03  0.42417477929E+03  0.12509000000E+03 0.  0.
         25    1    4    4    0    0 -0.65099775257E+02  0.37779642455E+02 -0.31944493798E+03  0.35122337426E+03  0.12509000000E+03 0.  0.
<mgrwt>
<rscale>  2 0.45415115E+03</rscale>
<asrwt>0</asrwt>
<pdfrwt beam="1">  1       21 0.79202113E-02 0.45415115E+03</pdfrwt>
<pdfrwt beam="2">  1       21 0.14079468E+00 0.45415115E+03</pdfrwt>
<totfact> 0.38989400E+04</totfact>
</mgrwt>
</event>
<event>
 7    0  0.4709932E-002  0.4548692E+03  0.7546771E-02  0.1026280E+00
         21   -1    0    0  502  501  0.00000000000E+00  0.00000000000E+00  0.12011804552E+04  0.12011804552E+04  0.00000000000E+00 0.  1.
         21   -1    0    0  501  502 -0.00000000000E+00 -0.00000000000E+00 -0.43063059763E+02  0.43063059763E+02  0.00000000000E+00 0.  1.
      99926    2    1    2    0    0  0.00000000000E+00 -0.14210854715E-13  0.11581173954E+04  0.12442435150E+04  0.45486923716E+03 0.  0.
      99925    2    3    3    0    0  0.89995524198E+01 -0.11007180302E+03  0.79483337177E+03  0.84446909893E+03  0.26300413761E+03 0.  0.
         25    1    4    4    0    0  0.96465964299E+01 -0.62994306936E+02  0.28927654596E+03  0.32154279291E+03  0.12509000000E+03 0.  0.
         25    1    4    4    0    0 -0.64704401011E+00 -0.47077496089E+02  0.50555682580E+03  0.52292630601E+03  0.12509000000E+03 0.  0.
         25    1    3    3    0    0 -0.89995524198E+01  0.11007180302E+03  0.36328402368E+03  0.39977441605E+03  0.12509000000E+03 0.  0.
<mgrwt>
<rscale>  2 0.45486924E+03</rscale>
<asrwt>0</asrwt>
<pdfrwt beam="1">  1       21 0.17664416E+00 0.45486924E+03</pdfrwt>
<pdfrwt beam="2">  1       21 0.63328037E-02 0.45486924E+03</pdfrwt>
<totfact> 0.30809291E+04</totfact>
</mgrwt>
</event>
<event>
 7    0  0.4709932E-002  0.4509616E+03  0.7546771E-02  0.1027436E+00
         21   -1    0    0  502  501  0.00000000000E+00  0.00000000000E+00  0.31983133231E+03  0.31983133231E+03  0.00000000000E+00 0.  1.
         21   -1    0    0  501  502 -0.00000000000E+00 -0.00000000000E+00 -0.15896377026E+03  0.15896377026E+03  0.00000000000E+00 0.  1.
      99926    2    1    2    0    0 -0.35527136788E-14  0.14210854715E-13  0.16086756205E+03  0.47879510256E+03  0.45096161446E+03 0.  0.
      99925    2    3    3    0    0  0.16347058921E+02 -0.65457318149E+02  0.10279200057E+02  0.27172929249E+03  0.26301950423E+03 0.  0.
         25    1    4    4    0    0  0.35376346829E+02 -0.61487109516E+01  0.19922030959E+02  0.13165746458E+03  0.12509000000E+03 0.  0.
         25    1    4    4    0    0 -0.19029287908E+02 -0.59308607197E+02 -0.96428309021E+01  0.14007182791E+03  0.12509000000E+03 0.  0.
         25    1    3    3    0    0 -0.16347058921E+02  0.65457318149E+02  0.15058836199E+03  0.20706581008E+03  0.12509000000E+03 0.  0.
<mgrwt>
<rscale>  2 0.45096161E+03</rscale>
<asrwt>0</asrwt>
<pdfrwt beam="1">  1       21 0.47034020E-01 0.45096161E+03</pdfrwt>
<pdfrwt beam="2">  1       21 0.23377025E-01 0.45096161E+03</pdfrwt>
<totfact> 0.68972481E+04</totfact>
</mgrwt>
</event>
<event>
 7    0  0.4709932E-002  0.4547104E+03  0.7546771E-02  0.1026327E+00
         21   -1    0    0  502  501  0.00000000000E+00  0.00000000000E+00  0.18927601098E+04  0.18927601098E+04  0.00000000000E+00 0.  1.
         21   -1    0    0  501  502 -0.00000000000E+00 -0.00000000000E+00 -0.27309523471E+02  0.27309523471E+02  0.00000000000E+00 0.  1.
      99926    2    1    2    0    0 -0.14210854715E-13  0.17763568394E-14  0.18654505863E+04  0.19200696332E+04  0.45471035459E+03 0.  0.
      99925    2    3    3    0    0  0.11059109219E+03 -0.10012161222E+02  0.10872981207E+04  0.11241428773E+04  0.26296268216E+03 0.  0.
         25    1    3    3    0    0 -0.11059109219E+03  0.10012161222E+02  0.77815246556E+03  0.79592675592E+03  0.12509000000E+03 0.  0.
         25    1    4    4    0    0  0.79707308368E+02 -0.73985188693E+01  0.44765638831E+03  0.47164790171E+03  0.12509000000E+03 0.  0.
         25    1    4    4    0    0  0.30883783824E+02 -0.26136423529E+01  0.63964173243E+03  0.65249497561E+03  0.12509000000E+03 0.  0.
<mgrwt>
<rscale>  2 0.45471035E+03</rscale>
<asrwt>0</asrwt>
<pdfrwt beam="1">  1       21 0.27834699E+00 0.45471035E+03</pdfrwt>
<pdfrwt beam="2">  1       21 0.40161077E-02 0.45471035E+03</pdfrwt>
<totfact> 0.15092855E+04</totfact>
</mgrwt>
</event>
<event>
 7    0  0.4709932E-002  0.4693191E+03  0.7546771E-02  0.1022113E+00
         21   -1    0    0  502  501  0.00000000000E+00  0.00000000000E+00  0.90360079822E+03  0.90360079822E+03  0.00000000000E+00 0. -1.
         21   -1    0    0  501  502 -0.00000000000E+00 -0.00000000000E+00 -0.60939644383E+02  0.60939644383E+02  0.00000000000E+00 0. -1.
      99926    2    1    2    0    0  0.00000000000E+00 -0.35527136788E-14  0.84266115384E+03  0.96454044261E+03  0.46931912941E+03 0.  0.
      99925    2    3    3    0    0 -0.12028373664E+03 -0.41275075506E+01  0.60096973187E+03  0.66697118147E+03  0.26306030615E+03 0.  0.
         25    1    4    4    0    0 -0.39061937591E+02 -0.36124642362E+02  0.25837842300E+03  0.29195503477E+03  0.12509000000E+03 0.  0.
         25    1    4    4    0    0 -0.81221799046E+02  0.31997134811E+02  0.34259130887E+03  0.37501614670E+03  0.12509000000E+03 0.  0.
         25    1    3    3    0    0  0.12028373664E+03  0.41275075506E+01  0.24169142197E+03  0.29756926114E+03  0.12509000000E+03 0.  0.
<mgrwt>
<rscale>  2 0.46931913E+03</rscale>
<asrwt>0</asrwt>
<pdfrwt beam="1">  1       21 0.13288246E+00 0.46931913E+03</pdfrwt>
<pdfrwt beam="2">  1       21 0.89617130E-02 0.46931913E+03</pdfrwt>
<totfact> 0.36317532E+04</totfact>
</mgrwt>
</event>
<event>
 7    0  0.4709932E-002  0.4523619E+03  0.7546771E-02  0.1027020E+00
         21   -1    0    0  502  501  0.00000000000E+00  0.00000000000E+00  0.16757093044E+03  0.16757093044E+03  0.00000000000E+00 0. -1.
         21   -1    0    0  501  502 -0.00000000000E+00 -0.00000000000E+00 -0.30529058684E+03  0.30529058684E+03  0.00000000000E+00 0. -1.
      99926    2    1    2    0    0  0.00000000000E+00  0.00000000000E+00 -0.13771965639E+03  0.47286151728E+03  0.45236192453E+03 0.  0.
      99925    2    3    3    0    0 -0.71192897481E+02 -0.77313618770E+02 -0.50807993756E+02  0.28780214977E+03  0.26306425239E+03 0.  0.
         25    1    3    3    0    0  0.71192897481E+02  0.77313618770E+02 -0.86911662639E+02  0.18505936751E+03  0.12509000000E+03 0.  0.
         25    1    4    4    0    0 -0.85216869295E+01 -0.41078532175E+02 -0.55649410756E+02  0.14319367993E+03  0.12509000000E+03 0.  0.
         25    1    4    4    0    0 -0.62671210552E+02 -0.36235086595E+02  0.48414170001E+01  0.14460846985E+03  0.12509000000E+03 0.  0.
<mgrwt>
<rscale>  2 0.45236192E+03</rscale>
<asrwt>0</asrwt>
<pdfrwt beam="1">  1       21 0.24642784E-01 0.45236192E+03</pdfrwt>
<pdfrwt beam="2">  1       21 0.44895674E-01 0.45236192E+03</pdfrwt>
<totfact> 0.68649465E+04</totfact>
</mgrwt>
</event>
<event>
 7    0  0.4709932E-002  0.4607237E+03  0.7546771E-02  0.1024572E+00
         21   -1    0    0  502  501  0.00000000000E+00  0.00000000000E+00  0.56019739519E+03  0.56019739519E+03  0.00000000000E+00 0. -1.
         21   -1    0    0  501  502 -0.00000000000E+00 -0.00000000000E+00 -0.94728360994E+02  0.94728360994E+02  0.00000000000E+00 0. -1.
      99926    2    1    2    0    0  0.00000000000E+00  0.00000000000E+00  0.46546903419E+03  0.65492575618E+03  0.46072369628E+03 0.  0.
      99925    2    3    3    0    0 -0.66779769006E+02  0.29705707473E+02  0.42337709601E+03  0.50405758205E+03  0.26359801591E+03 0.  0.
         25    1    4    4    0    0 -0.39162494446E+02  0.24371213862E+02  0.28930445467E+03  0.31854706502E+03  0.12509000000E+03 0.  0.
         25    1    3    3    0    0  0.66779769006E+02 -0.29705707473E+02  0.42091938184E+02  0.15086817413E+03  0.12509000000E+03 0.  0.
         25    1    4    4    0    0 -0.27617274560E+02  0.53344936105E+01  0.13407264134E+03  0.18551051704E+03  0.12509000000E+03 0.  0.
<mgrwt>
<rscale>  2 0.46072370E+03</rscale>
<asrwt>0</asrwt>
<pdfrwt beam="1">  1       21 0.82381968E-01 0.46072370E+03</pdfrwt>
<pdfrwt beam="2">  1       21 0.13930642E-01 0.46072370E+03</pdfrwt>
<totfact> 0.52985540E+04</totfact>
</mgrwt>
</event>
<event>
 7    0  0.4709932E-002  0.4599313E+03  0.7546771E-02  0.1024801E+00
         21   -1    0    0  502  501  0.00000000000E+00  0.00000000000E+00  0.57841402335E+02  0.57841402335E+02  0.00000000000E+00 0.  1.
         21   -1    0    0  501  502 -0.00000000000E+00 -0.00000000000E+00 -0.91429647312E+03  0.91429647312E+03  0.00000000000E+00 0.  1.
      99926    2    1    2    0    0 -0.35527136788E-14 -0.22204460493E-15 -0.85645507078E+03  0.97213787545E+03  0.45993125641E+03 0.  0.
      99925    2    3    3    0    0  0.22644367140E+02  0.84983977869E+00 -0.78082697995E+03  0.82421693098E+03  0.26292448936E+03 0.  0.
         25    1    4    4    0    0 -0.27706875755E+02 -0.28001499200E+01 -0.41359038880E+03  0.43298964146E+03  0.12509000000E+03 0.  0.
         25    1    4    4    0    0  0.50351242895E+02  0.36499896987E+01 -0.36723659115E+03  0.39122728952E+03  0.12509000000E+03 0.  0.
         25    1    3    3    0    0 -0.22644367140E+02 -0.84983977869E+00 -0.75628090835E+02  0.14792094447E+03  0.12509000000E+03 0.  0.
<mgrwt>
<rscale>  2 0.45993126E+03</rscale>
<asrwt>0</asrwt>
<pdfrwt beam="1">  1       21 0.85060879E-02 0.45993126E+03</pdfrwt>
<pdfrwt beam="2">  1       21 0.13445537E+00 0.45993126E+03</pdfrwt>
<totfact> 0.38741868E+04</totfact>
</mgrwt>
</event>
<event>
 7    0  0.4709932E-002  0.4542676E+03  0.7546771E-02  0.1026457E+00
         21   -1    0    0  502  501  0.00000000000E+00  0.00000000000E+00  0.16516516080E+03  0.16516516080E+03  0.00000000000E+00 0. -1.
         21   -1    0    0  501  502 -0.00000000000E+00 -0.00000000000E+00 -0.31235258285E+03  0.31235258285E+03  0.00000000000E+00 0. -1.
      99926    2    1    2    0    0  0.00000000000E+00  0.00000000000E+00 -0.14718742205E+03  0.47751774366E+03  0.45426760648E+03 0.  0.
      99925    2    3    3    0    0 -0.78435299712E+02  0.80528162251E+02 -0.98846507090E+02  0.30252850594E+03  0.26289918940E+03 0.  0.
         25    1    3    3    0    0  0.78435299712E+02 -0.80528162251E+02 -0.48340914962E+02  0.17498923771E+03  0.12509000000E+03 0.  0.
         25    1    4    4    0    0 -0.25330440291E+02  0.78630387014E+02 -0.56021329932E+02  0.16003207952E+03  0.12509000000E+03 0.  0.
         25    1    4    4    0    0 -0.53104859421E+02  0.18977752372E+01 -0.42825177159E+02  0.14249642642E+03  0.12509000000E+03 0.  0.
<mgrwt>
<rscale>  2 0.45426761E+03</rscale>
<asrwt>0</asrwt>
<pdfrwt beam="1">  1       21 0.24288994E-01 0.45426761E+03</pdfrwt>
<pdfrwt beam="2">  1       21 0.45934203E-01 0.45426761E+03</pdfrwt>
<totfact> 0.67271426E+04</totfact>
</mgrwt>
</event>
<event>
 7    0  0.4709932E-002  0.4664191E+03  0.7546771E-02  0.1022936E+00
         21   -1    0    0  502  501  0.00000000000E+00  0.00000000000E+00  0.39993400287E+02  0.39993400287E+02  0.00000000000E+00 0. -1.
         21   -1    0    0  501  502 -0.00000000000E+00 -0.00000000000E+00 -0.13598915720E+04  0.13598915720E+04  0.00000000000E+00 0. -1.
      99926    2    1    2    0    0  0.00000000000E+00  0.00000000000E+00 -0.13198981718E+04  0.13998849723E+04  0.46641907331E+03 0.  0.
      99925    2    3    3    0    0  0.84423999028E+02 -0.88395375211E+02 -0.87629497829E+03  0.92304909352E+03  0.26303153061E+03 0.  0.
         25    1    3    3    0    0 -0.84423999028E+02  0.88395375211E+02 -0.44360319346E+03  0.47683587881E+03  0.12509000000E+03 0.  0.
         25    1    4    4    0    0  0.80960177974E+02 -0.51684570203E+02 -0.53191848036E+03  0.55480683401E+03  0.12509000000E+03 0.  0.
         25    1    4    4    0    0  0.34638210546E+01 -0.36710805009E+02 -0.34437649793E+03  0.36824225950E+03  0.12509000000E+03 0.  0.
<mgrwt>
<rscale>  2 0.46641907E+03</rscale>
<asrwt>0</asrwt>
<pdfrwt beam="1">  1       21 0.58813819E-02 0.46641907E+03</pdfrwt>
<pdfrwt beam="2">  1       21 0.19998407E+00 0.46641907E+03</pdfrwt>
<totfact> 0.24122392E+04</totfact>
</mgrwt>
</event>
<event>
 7    0  0.4709932E-002  0.4681381E+03  0.7546771E-02  0.1022447E+00
         21   -1    0    0  502  501  0.00000000000E+00  0.00000000000E+00  0.15834602068E+04  0.15834602068E+04  0.00000000000E+00 0.  1.
         21   -1    0    0  501  502 -0.00000000000E+00 -0.00000000000E+00 -0.34600377728E+02  0.34600377728E+02  0.00000000000E+00 0.  1.
      99926    2    1    2    0    0  0.00000000000E+00  0.14210854715E-13  0.15488598290E+04  0.16180605845E+04  0.46813810472E+03 0.  0.
      99925    2    3    3    0    0 -0.31334487062E+02  0.12013448245E+03  0.91183192112E+03  0.95710203245E+03  0.26304506115E+03 0.  0.
         25    1    4    4    0    0 -0.31877968140E+02  0.67186523173E+02  0.59191625437E+03  0.60954293863E+03  0.12509000000E+03 0.  0.
         25    1    3    3    0    0  0.31334487062E+02 -0.12013448245E+03  0.63702790792E+03  0.66095855204E+03  0.12509000000E+03 0.  0.
         25    1    4    4    0    0  0.54348107773E+00  0.52947959282E+02  0.31991566676E+03  0.34755909382E+03  0.12509000000E+03 0.  0.
<mgrwt>
<rscale>  2 0.46813810E+03</rscale>
<asrwt>0</asrwt>
<pdfrwt beam="1">  1       21 0.23286175E+00 0.46813810E+03</pdfrwt>
<pdfrwt beam="2">  1       21 0.50882919E-02 0.46813810E+03</pdfrwt>
<totfact> 0.19010264E+04</totfact>
</mgrwt>
</event>
<event>
 7    0  0.4709932E-002  0.4522746E+03  0.7546771E-02  0.1027046E+00
         21   -1    0    0  502  501  0.00000000000E+00  0.00000000000E+00  0.13359666145E+04  0.13359666145E+04  0.00000000000E+00 0. -1.
         21   -1    0    0  501  502 -0.00000000000E+00 -0.00000000000E+00 -0.38277963590E+02  0.38277963590E+02  0.00000000000E+00 0. -1.
      99926    2    1    2    0    0  0.00000000000E+00 -0.35527136788E-14  0.12976886509E+04  0.13742445781E+04  0.45227461315E+03 0.  0.
      99925    2    3    3    0    0 -0.46846507351E+02  0.16943013622E+02  0.51887754083E+03  0.58388015945E+03  0.26305983590E+03 0.  0.
         25    1    4    4    0    0 -0.47096829772E+02  0.34222926699E+02  0.31751740831E+03  0.34619955628E+03  0.12509000000E+03 0.  0.
         25    1    3    3    0    0  0.46846507351E+02 -0.16943013622E+02  0.77881111006E+03  0.79036441862E+03  0.12509000000E+03 0.  0.
         25    1    4    4    0    0  0.25032242155E+00 -0.17279913077E+02  0.20136013251E+03  0.23768060317E+03  0.12509000000E+03 0.  0.
<mgrwt>
<rscale>  2 0.45227461E+03</rscale>
<asrwt>0</asrwt>
<pdfrwt beam="1">  1       21 0.19646565E+00 0.45227461E+03</pdfrwt>
<pdfrwt beam="2">  1       21 0.56291132E-02 0.45227461E+03</pdfrwt>
<totfact> 0.27606667E+04</totfact>
</mgrwt>
</event>
<event>
 7    0  0.4709932E-002  0.4574907E+03  0.7546771E-02  0.1025511E+00
         21   -1    0    0  502  501  0.00000000000E+00  0.00000000000E+00  0.43276473356E+03  0.43276473356E+03  0.00000000000E+00 0. -1.
         21   -1    0    0  501  502 -0.00000000000E+00 -0.00000000000E+00 -0.12090735948E+03  0.12090735948E+03  0.00000000000E+00 0. -1.
      99926    2    1    2    0    0  0.71054273576E-14  0.00000000000E+00  0.31185737408E+03  0.55367209304E+03  0.45749072651E+03 0.  0.
      99925    2    3    3    0    0  0.47527399628E+02  0.31377338749E+02  0.31737895011E+03  0.41611706040E+03  0.26302208820E+03 0.  0.
         25    1    4    4    0    0  0.83208686353E+01  0.31256164617E+02  0.21044977297E+03  0.24694695731E+03  0.12509000000E+03 0.  0.
         25    1    4    4    0    0  0.39206530993E+02  0.12117413210E+00  0.10692917714E+03  0.16917010309E+03  0.12509000000E+03 0.  0.
         25    1    3    3    0    0 -0.47527399628E+02 -0.31377338749E+02 -0.55215760271E+01  0.13755503264E+03  0.12509000000E+03 0.  0.
<mgrwt>
<rscale>  2 0.45749073E+03</rscale>
<asrwt>0</asrwt>
<pdfrwt beam="1">  1       21 0.63641872E-01 0.45749073E+03</pdfrwt>
<pdfrwt beam="2">  1       21 0.17780494E-01 0.45749073E+03</pdfrwt>
<totfact> 0.60425022E+04</totfact>
</mgrwt>
</event>
<event>
 7    0  0.4709932E-002  0.4555025E+03  0.7546771E-02  0.1026094E+00
         21   -1    0    0  502  501  0.00000000000E+00  0.00000000000E+00  0.54775642324E+03  0.54775642324E+03  0.00000000000E+00 0.  1.
         21   -1    0    0  501  502 -0.00000000000E+00 -0.00000000000E+00 -0.94696524973E+02  0.94696524973E+02  0.00000000000E+00 0.  1.
      99926    2    1    2    0    0  0.00000000000E+00  0.35527136788E-14  0.45305989826E+03  0.64245294821E+03  0.45550249094E+03 0.  0.
      99925    2    3    3    0    0 -0.10285367810E+03 -0.22657328713E+02  0.34521472348E+03  0.44656950464E+03  0.26298076645E+03 0.  0.
         25    1    3    3    0    0  0.10285367810E+03  0.22657328713E+02  0.10784517478E+03  0.19588344357E+03  0.12509000000E+03 0.  0.
         25    1    4    4    0    0 -0.73796867799E+02  0.95799308532E+01  0.13740461319E+03  0.20016315495E+03  0.12509000000E+03 0.  0.
         25    1    4    4    0    0 -0.29056810298E+02 -0.32237259566E+02  0.20781011029E+03  0.24640634969E+03  0.12509000000E+03 0.  0.
<mgrwt>
<rscale>  2 0.45550249E+03</rscale>
<asrwt>0</asrwt>
<pdfrwt beam="1">  1       21 0.80552414E-01 0.45550249E+03</pdfrwt>
<pdfrwt beam="2">  1       21 0.13925960E-01 0.45550249E+03</pdfrwt>
<totfact> 0.55916335E+04</totfact>
</mgrwt>
</event>
<event>
 7    0  0.4709932E-002  0.4136842E+03  0.7546771E-02  0.1039142E+00
         21   -1    0    0  502  501  0.00000000000E+00  0.00000000000E+00  0.19793592693E+03  0.19793592693E+03  0.00000000000E+00 0. -1.
         21   -1    0    0  501  502 -0.00000000000E+00 -0.00000000000E+00 -0.21614896234E+03  0.21614896234E+03  0.00000000000E+00 0. -1.
      99926    2    1    2    0    0  0.00000000000E+00  0.35527136788E-14 -0.18213035409E+02  0.41408488928E+03  0.41368415593E+03 0.  0.
      99925    2    3    3    0    0 -0.20524721438E+02  0.91292624749E+01 -0.75701423281E+02  0.27459642931E+03  0.26299788189E+03 0.  0.
         25    1    4    4    0    0 -0.76974476486E+01 -0.29816287984E+02 -0.15194510522E+02  0.12971755078E+03  0.12509000000E+03 0.  0.
         25    1    4    4    0    0 -0.12827273790E+02  0.38945550459E+02 -0.60506912759E+02  0.14487887853E+03  0.12509000000E+03 0.  0.
         25    1    3    3    0    0  0.20524721438E+02 -0.91292624749E+01  0.57488387871E+02  0.13948845997E+03  0.12509000000E+03 0.  0.
<mgrwt>
<rscale>  2 0.41368416E+03</rscale>
<asrwt>0</asrwt>
<pdfrwt beam="1">  1       21 0.29108225E-01 0.41368416E+03</pdfrwt>
<pdfrwt beam="2">  1       21 0.31786612E-01 0.41368416E+03</pdfrwt>
<totfact> 0.10108933E+05</totfact>
</mgrwt>
</event>
<event>
 7    0  0.4709932E-002  0.4233999E+03  0.7546771E-02  0.1035965E+00
         21   -1    0    0  502  501  0.00000000000E+00  0.00000000000E+00  0.11236982345E+03  0.11236982345E+03  0.00000000000E+00 0. -1.
         21   -1    0    0  501  502 -0.00000000000E+00 -0.00000000000E+00 -0.39883365591E+03  0.39883365591E+03  0.00000000000E+00 0. -1.
      99926    2    1    2    0    0  0.00000000000E+00  0.00000000000E+00 -0.28646383245E+03  0.51120347936E+03  0.42339989373E+03 0.  0.
      99925    2    3    3    0    0 -0.41216708633E+02 -0.62374667696E+02 -0.21997124990E+03  0.35102174546E+03  0.26313399393E+03 0.  0.
         25    1    4    4    0    0 -0.33970654584E+02 -0.71039870014E+02 -0.11334621348E+03  0.18626739037E+03  0.12509000000E+03 0.  0.
         25    1    3    3    0    0  0.41216708633E+02  0.62374667696E+02 -0.66492582554E+02  0.16018173390E+03  0.12509000000E+03 0.  0.
         25    1    4    4    0    0 -0.72460540495E+01  0.86652023188E+01 -0.10662503642E+03  0.16475435509E+03  0.12509000000E+03 0.  0.
<mgrwt>
<rscale>  2 0.42339989E+03</rscale>
<asrwt>0</asrwt>
<pdfrwt beam="1">  1       21 0.16524974E-01 0.42339989E+03</pdfrwt>
<pdfrwt beam="2">  1       21 0.58652009E-01 0.42339989E+03</pdfrwt>
<totfact> 0.83527621E+04</totfact>
</mgrwt>
</event>
<event>
 7    0  0.4709932E-002  0.4530904E+03  0.7546771E-02  0.1026804E+00
         21   -1    0    0  502  501  0.00000000000E+00  0.00000000000E+00  0.13349743146E+04  0.13349743146E+04  0.00000000000E+00 0. -1.
         21   -1    0    0  501  502 -0.00000000000E+00 -0.00000000000E+00 -0.38444735838E+02  0.38444735838E+02  0.00000000000E+00 0. -1.
      99926    2    1    2    0    0  0.00000000000E+00  0.00000000000E+00  0.12965295788E+04  0.13734190505E+04  0.45309043193E+03 0.  0.
      99925    2    3    3    0    0  0.48003934842E+02  0.93608233725E+02  0.92804416983E+03  0.97031126848E+03  0.26300398743E+03 0.  0.
         25    1    3    3    0    0 -0.48003934842E+02 -0.93608233725E+02  0.36848540897E+03  0.40310778200E+03  0.12509000000E+03 0.  0.
         25    1    4    4    0    0  0.23799005516E+02  0.76760875802E+02  0.59592625214E+03  0.61419396839E+03  0.12509000000E+03 0.  0.
         25    1    4    4    0    0  0.24204929326E+02  0.16847357923E+02  0.33211791769E+03  0.35611730009E+03  0.12509000000E+03 0.  0.
<mgrwt>
<rscale>  2 0.45309043E+03</rscale>
<asrwt>0</asrwt>
<pdfrwt beam="1">  1       21 0.19631972E+00 0.45309043E+03</pdfrwt>
<pdfrwt beam="2">  1       21 0.56536385E-02 0.45309043E+03</pdfrwt>
<totfact> 0.27454253E+04</totfact>
</mgrwt>
</event>
<event>
 7    0  0.4709932E-002  0.4551445E+03  0.7546771E-02  0.1026199E+00
         21   -1    0    0  502  501  0.00000000000E+00  0.00000000000E+00  0.15832348927E+03  0.15832348927E+03  0.00000000000E+00 0.  1.
         21   -1    0    0  501  502 -0.00000000000E+00 -0.00000000000E+00 -0.32710953078E+03  0.32710953078E+03  0.00000000000E+00 0.  1.
      99926    2    1    2    0    0  0.00000000000E+00 -0.17763568394E-14 -0.16878604152E+03  0.48543302005E+03  0.45514447063E+03 0.  0.
      99925    2    3    3    0    0 -0.97235201031E+02  0.86149754054E+01 -0.44982120897E+02  0.28417740899E+03  0.26306749411E+03 0.  0.
         25    1    4    4    0    0 -0.86446553909E+02 -0.14195472803E+02 -0.30703629505E+02  0.15577143222E+03  0.12509000000E+03 0.  0.
         25    1    3    3    0    0  0.97235201031E+02 -0.86149754054E+01 -0.12380392062E+03  0.20125561106E+03  0.12509000000E+03 0.  0.
         25    1    4    4    0    0 -0.10788647122E+02  0.22810448208E+02 -0.14278491392E+02  0.12840597677E+03  0.12509000000E+03 0.  0.
<mgrwt>
<rscale>  2 0.45514447E+03</rscale>
<asrwt>0</asrwt>
<pdfrwt beam="1">  1       21 0.23282867E-01 0.45514447E+03</pdfrwt>
<pdfrwt beam="2">  1       21 0.48104342E-01 0.45514447E+03</pdfrwt>
<totfact> 0.66230706E+04</totfact>
</mgrwt>
</event>
<event>
 7    0  0.4709932E-002  0.4522156E+03  0.7546771E-02  0.1027063E+00
         21   -1    0    0  502  501  0.00000000000E+00  0.00000000000E+00  0.18739034239E+04  0.18739034239E+04  0.00000000000E+00 0. -1.
         21   -1    0    0  501  502 -0.00000000000E+00 -0.00000000000E+00 -0.27282481669E+02  0.27282481669E+02  0.00000000000E+00 0. -1.
      99926    2    1    2    0    0  0.00000000000E+00  0.00000000000E+00  0.18466209422E+04  0.19011859056E+04  0.45221559377E+03 0.  0.
      99925    2    3    3    0    0 -0.91565192909E+02 -0.47555488556E+02  0.99480090042E+03  0.10340696499E+04  0.26272704544E+03 0.  0.
         25    1    4    4    0    0 -0.62406363772E+02 -0.68263594916E+01  0.62514334230E+03  0.64061912237E+03  0.12509000000E+03 0.  0.
         25    1    4    4    0    0 -0.29158829138E+02 -0.40729129064E+02  0.36965755812E+03  0.39345052757E+03  0.12509000000E+03 0.  0.
         25    1    3    3    0    0  0.91565192909E+02  0.47555488556E+02  0.85182004179E+03  0.86711625561E+03  0.12509000000E+03 0.  0.
<mgrwt>
<rscale>  2 0.45221559E+03</rscale>
<asrwt>0</asrwt>
<pdfrwt beam="1">  1       21 0.27557395E+00 0.45221559E+03</pdfrwt>
<pdfrwt beam="2">  1       21 0.40121309E-02 0.45221559E+03</pdfrwt>
<totfact> 0.15727991E+04</totfact>
</mgrwt>
</event>
<event>
 7    0  0.4709932E-002  0.4539725E+03  0.7546771E-02  0.1026544E+00
         21   -1    0    0  502  501  0.00000000000E+00  0.00000000000E+00  0.80827167765E+02  0.80827167765E+02  0.00000000000E+00 0. -1.
         21   -1    0    0  501  502 -0.00000000000E+00 -0.00000000000E+00 -0.63744349753E+03  0.63744349753E+03  0.00000000000E+00 0. -1.
      99926    2    1    2    0    0  0.00000000000E+00  0.00000000000E+00 -0.55661632977E+03  0.71827066530E+03  0.45397247721E+03 0.  0.
      99925    2    3    3    0    0  0.10308727131E+03 -0.43316261281E+01 -0.28087458489E+03  0.39838511317E+03  0.26301029916E+03 0.  0.
         25    1    4    4    0    0  0.61826522065E+02 -0.15034955411E+02 -0.19694194943E+03  0.24183094976E+03  0.12509000000E+03 0.  0.
         25    1    4    4    0    0  0.41260749247E+02  0.10703329283E+02 -0.83932635452E+02  0.15655416341E+03  0.12509000000E+03 0.  0.
         25    1    3    3    0    0 -0.10308727131E+03  0.43316261281E+01 -0.27574174488E+03  0.31988555213E+03  0.12509000000E+03 0.  0.
<mgrwt>
<rscale>  2 0.45397248E+03</rscale>
<asrwt>0</asrwt>
<pdfrwt beam="1">  1       21 0.11886348E-01 0.45397248E+03</pdfrwt>
<pdfrwt beam="2">  1       21 0.93741690E-01 0.45397248E+03</pdfrwt>
<totfact> 0.52344001E+04</totfact>
</mgrwt>
</event>
<event>
 7    0  0.4709932E-002  0.4652788E+03  0.7546771E-02  0.1023261E+00
         21   -1    0    0  502  501  0.00000000000E+00  0.00000000000E+00  0.68971599219E+02  0.68971599219E+02  0.00000000000E+00 0.  1.
         21   -1    0    0  501  502 -0.00000000000E+00 -0.00000000000E+00 -0.78468676643E+03  0.78468676643E+03  0.00000000000E+00 0.  1.
      99926    2    1    2    0    0  0.00000000000E+00  0.00000000000E+00 -0.71571516721E+03  0.85365836564E+03  0.46527884614E+03 0.  0.
      99925    2    3    3    0    0 -0.11747581064E+02  0.11981433037E+03 -0.48895669170E+03  0.56807056174E+03  0.26292971939E+03 0.  0.
         25    1    3    3    0    0  0.11747581064E+02 -0.11981433037E+03 -0.22675847551E+03  0.28558780390E+03  0.12509000000E+03 0.  0.
         25    1    4    4    0    0  0.17222647632E+02  0.95061834492E+02 -0.25336708756E+03  0.29862310883E+03  0.12509000000E+03 0.  0.
         25    1    4    4    0    0 -0.28970228696E+02  0.24752495879E+02 -0.23558960413E+03  0.26944745291E+03  0.12509000000E+03 0.  0.
<mgrwt>
<rscale>  2 0.46527885E+03</rscale>
<asrwt>0</asrwt>
<pdfrwt beam="1">  1       21 0.10142883E-01 0.46527885E+03</pdfrwt>
<pdfrwt beam="2">  1       21 0.11539511E+00 0.46527885E+03</pdfrwt>
<totfact> 0.41802251E+04</totfact>
</mgrwt>
</event>
<event>
 6    0  0.4709932E-002  0.4621830E+03  0.7546771E-02  0.1024150E+00
         21   -1    0    0  502  501  0.00000000000E+00  0.00000000000E+00  0.25936750334E+03  0.25936750334E+03  0.00000000000E+00 0. -1.
         21   -1    0    0  501  502 -0.00000000000E+00 -0.00000000000E+00 -0.20589815376E+03  0.20589815376E+03  0.00000000000E+00 0. -1.
      99926    2    1    2    0    0  0.14210854715E-13  0.00000000000E+00  0.53469349576E+02  0.46526565710E+03  0.46218303769E+03 0.  0.
         25    1    3    3    0    0  0.32783908030E+02 -0.13140442147E+02  0.28975648184E+02  0.13317113851E+03  0.12509000000E+03 0.  0.
         25    1    3    3    0    0 -0.11226625574E+03 -0.30497600148E+02 -0.18240585311E+02  0.17179651581E+03  0.12509000000E+03 0.  0.
         25    1    3    3    0    0  0.79482347711E+02  0.43638042295E+02  0.42734286703E+02  0.16029800277E+03  0.12509000000E+03 0.  0.
<mgrwt>
<rscale>  2 0.46218304E+03</rscale>
<asrwt>0</asrwt>
<pdfrwt beam="1">  1       21 0.38142280E-01 0.46218304E+03</pdfrwt>
<pdfrwt beam="2">  1       21 0.30279140E-01 0.46218304E+03</pdfrwt>
<totfact> 0.64049968E+04</totfact>
</mgrwt>
</event>
<event>
 7    0  0.4709932E-002  0.4505072E+03  0.7546771E-02  0.1027571E+00
         21   -1    0    0  502  501  0.00000000000E+00  0.00000000000E+00  0.53833798312E+02  0.53833798312E+02  0.00000000000E+00 0. -1.
         21   -1    0    0  501  502 -0.00000000000E+00 -0.00000000000E+00 -0.94251524773E+03  0.94251524773E+03  0.00000000000E+00 0. -1.
      99926    2    1    2    0    0 -0.14210854715E-13 -0.17763568394E-14 -0.88868144942E+03  0.99634904605E+03  0.45050716200E+03 0.  0.
      99925    2    3    3    0    0  0.99109277059E+02  0.97190602059E+01 -0.65892668057E+03  0.71643500416E+03  0.26301641755E+03 0.  0.
         25    1    3    3    0    0 -0.99109277059E+02 -0.97190602059E+01 -0.22975476886E+03  0.27991404188E+03  0.12509000000E+03 0.  0.
         25    1    4    4    0    0  0.14543450393E+02  0.37619078039E+01 -0.23948379634E+03  0.27060240337E+03  0.12509000000E+03 0.  0.
         25    1    4    4    0    0  0.84565826665E+02  0.59571524020E+01 -0.41944288423E+03  0.44583260080E+03  0.12509000000E+03 0.  0.
<mgrwt>
<rscale>  2 0.45050716E+03</rscale>
<asrwt>0</asrwt>
<pdfrwt beam="1">  1       21 0.79167354E-02 0.45050716E+03</pdfrwt>
<pdfrwt beam="2">  1       21 0.13860518E+00 0.45050716E+03</pdfrwt>
<totfact> 0.40719265E+04</totfact>
</mgrwt>
</event>
<event>
 7    0  0.4709932E-002  0.4320427E+03  0.7546771E-02  0.1033217E+00
         21   -1    0    0  502  501  0.00000000000E+00  0.00000000000E+00  0.17795549309E+04  0.17795549309E+04  0.00000000000E+00 0. -1.
         21   -1    0    0  501  502 -0.00000000000E+00 -0.00000000000E+00 -0.26222973137E+02  0.26222973137E+02  0.00000000000E+00 0. -1.
      99926    2    1    2    0    0  0.71054273576E-14  0.00000000000E+00  0.17533319578E+04  0.18057779041E+04  0.43204268839E+03 0.  0.
      99925    2    3    3    0    0 -0.45968835052E+02  0.43932872139E+02  0.86247756452E+03  0.90393962080E+03  0.26305143547E+03 0.  0.
         25    1    4    4    0    0 -0.46053146758E+02  0.11780642150E+02  0.54517079484E+03  0.56135405896E+03  0.12509000000E+03 0.  0.
         25    1    4    4    0    0  0.84311705947E-01  0.32152229988E+02  0.31730676968E+03  0.34258556184E+03  0.12509000000E+03 0.  0.
         25    1    3    3    0    0  0.45968835052E+02 -0.43932872139E+02  0.89085439328E+03  0.90183828327E+03  0.12509000000E+03 0.  0.
<mgrwt>
<rscale>  2 0.43204269E+03</rscale>
<asrwt>0</asrwt>
<pdfrwt beam="1">  1       21 0.26169917E+00 0.43204269E+03</pdfrwt>
<pdfrwt beam="2">  1       21 0.38563208E-02 0.43204269E+03</pdfrwt>
<totfact> 0.20578211E+04</totfact>
</mgrwt>
</event>
<event>
 7    0  0.4709932E-002  0.4583607E+03  0.7546771E-02  0.1025258E+00
         21   -1    0    0  502  501  0.00000000000E+00  0.00000000000E+00  0.23627119198E+03  0.23627119198E+03  0.00000000000E+00 0. -1.
         21   -1    0    0  501  502 -0.00000000000E+00 -0.00000000000E+00 -0.22230234956E+03  0.22230234956E+03  0.00000000000E+00 0. -1.
      99926    2    1    2    0    0  0.00000000000E+00  0.00000000000E+00  0.13968842424E+02  0.45857354154E+03  0.45836073615E+03 0.  0.
      99925    2    3    3    0    0  0.66057549304E+02 -0.85325433627E+02  0.52141677723E+02  0.28901911695E+03  0.26300050564E+03 0.  0.
         25    1    4    4    0    0  0.28488705727E+02 -0.81923098882E+02  0.42342185721E+02  0.15799800403E+03  0.12509000000E+03 0.  0.
         25    1    3    3    0    0 -0.66057549304E+02  0.85325433627E+02 -0.38172835299E+02  0.16955442459E+03  0.12509000000E+03 0.  0.
         25    1    4    4    0    0  0.37568843577E+02 -0.34023347449E+01  0.97994920022E+01  0.13102111293E+03  0.12509000000E+03 0.  0.
<mgrwt>
<rscale>  2 0.45836074E+03</rscale>
<asrwt>0</asrwt>
<pdfrwt beam="1">  1       21 0.34745764E-01 0.45836074E+03</pdfrwt>
<pdfrwt beam="2">  1       21 0.32691522E-01 0.45836074E+03</pdfrwt>
<totfact> 0.66484058E+04</totfact>
</mgrwt>
</event>
<event>
 7    0  0.4709932E-002  0.4521428E+03  0.7546771E-02  0.1027085E+00
         21   -1    0    0  502  501  0.00000000000E+00  0.00000000000E+00  0.12958417171E+03  0.12958417171E+03  0.00000000000E+00 0.  1.
         21   -1    0    0  501  502 -0.00000000000E+00 -0.00000000000E+00 -0.39440220499E+03  0.39440220499E+03  0.00000000000E+00 0.  1.
      99926    2    1    2    0    0  0.35527136788E-14  0.00000000000E+00 -0.26481803328E+03  0.52398637670E+03  0.45214282280E+03 0.  0.
      99925    2    3    3    0    0  0.26595099389E+02  0.81070734072E+02 -0.85649356689E+02  0.28940443791E+03  0.26294363112E+03 0.  0.
         25    1    4    4    0    0 -0.15395528384E+02  0.61803926574E+02 -0.64141874618E+02  0.15433222545E+03  0.12509000000E+03 0.  0.
         25    1    4    4    0    0  0.41990627773E+02  0.19266807498E+02 -0.21507482071E+02  0.13507221245E+03  0.12509000000E+03 0.  0.
         25    1    3    3    0    0 -0.26595099389E+02 -0.81070734072E+02 -0.17916867659E+03  0.23458193879E+03  0.12509000000E+03 0.  0.
<mgrwt>
<rscale>  2 0.45214282E+03</rscale>
<asrwt>0</asrwt>
<pdfrwt beam="1">  1       21 0.19056496E-01 0.45214282E+03</pdfrwt>
<pdfrwt beam="2">  1       21 0.58000323E-01 0.45214282E+03</pdfrwt>
<totfact> 0.65076934E+04</totfact>
</mgrwt>
</event>
<event>
 7    0  0.4709932E-002  0.4646049E+03  0.7546771E-02  0.1023454E+00
         21   -1    0    0  502  501  0.00000000000E+00  0.00000000000E+00  0.49561070596E+03  0.49561070596E+03  0.00000000000E+00 0. -1.
         21   -1    0    0  501  502 -0.00000000000E+00 -0.00000000000E+00 -0.10888471867E+03  0.10888471867E+03  0.00000000000E+00 0. -1.
      99926    2    1    2    0    0  0.17763568394E-14  0.00000000000E+00  0.38672598729E+03  0.60449542463E+03  0.46460491727E+03 0.  0.
      99925    2    3    3    0    0  0.92334634496E+01 -0.11400075526E+03  0.29227725158E+03  0.41046063180E+03  0.26451939328E+03 0.  0.
         25    1    4    4    0    0 -0.92255151074E+01 -0.10013400369E+03  0.15114552324E+03  0.22046406991E+03  0.12509000000E+03 0.  0.
         25    1    4    4    0    0  0.18458978557E+02 -0.13866751573E+02  0.14113172833E+03  0.18999656189E+03  0.12509000000E+03 0.  0.
         25    1    3    3    0    0 -0.92334634496E+01  0.11400075526E+03  0.94448735712E+02  0.19403479282E+03  0.12509000000E+03 0.  0.
<mgrwt>
<rscale>  2 0.46460492E+03</rscale>
<asrwt>0</asrwt>
<pdfrwt beam="1">  1       21 0.72883926E-01 0.46460492E+03</pdfrwt>
<pdfrwt beam="2">  1       21 0.16012459E-01 0.46460492E+03</pdfrwt>
<totfact> 0.54172975E+04</totfact>
</mgrwt>
</event>
<event>
 7    0  0.4709932E-002  0.4482657E+03  0.7546771E-02  0.1028241E+00
         21   -1    0    0  502  501  0.00000000000E+00  0.00000000000E+00  0.19179073633E+03  0.19179073633E+03  0.00000000000E+00 0. -1.
         21   -1    0    0  501  502 -0.00000000000E+00 -0.00000000000E+00 -0.26192884493E+03  0.26192884493E+03  0.00000000000E+00 0. -1.
      99926    2    1    2    0    0 -0.71054273576E-14  0.35527136788E-14 -0.70138108599E+02  0.45371958126E+03  0.44826566246E+03 0.  0.
      99925    2    3    3    0    0  0.34732847505E+02 -0.22105041166E+02 -0.14401506385E+03  0.30272184566E+03  0.26306876227E+03 0.  0.
         25    1    3    3    0    0 -0.34732847505E+02  0.22105041166E+02  0.73876955250E+02  0.15099773560E+03  0.12509000000E+03 0.  0.
         25    1    4    4    0    0 -0.23172123688E+02 -0.79114393380E+01 -0.62642608499E+02  0.14202514808E+03  0.12509000000E+03 0.  0.
         25    1    4    4    0    0  0.57904971193E+02 -0.14193601828E+02 -0.81372455351E+02  0.16069669758E+03  0.12509000000E+03 0.  0.
<mgrwt>
<rscale>  2 0.44826566E+03</rscale>
<asrwt>0</asrwt>
<pdfrwt beam="1">  1       21 0.28204520E-01 0.44826566E+03</pdfrwt>
<pdfrwt beam="2">  1       21 0.38518948E-01 0.44826566E+03</pdfrwt>
<totfact> 0.72454248E+04</totfact>
</mgrwt>
</event>
<event>
 7    0  0.4709932E-002  0.4290573E+03  0.7546771E-02  0.1034158E+00
         21   -1    0    0  502  501  0.00000000000E+00  0.00000000000E+00  0.64374436576E+03  0.64374436576E+03  0.00000000000E+00 0.  1.
         21   -1    0    0  501  502 -0.00000000000E+00 -0.00000000000E+00 -0.71491956500E+02  0.71491956500E+02  0.00000000000E+00 0.  1.
      99926    2    1    2    0    0  0.00000000000E+00  0.00000000000E+00  0.57225240926E+03  0.71523632226E+03  0.42905731176E+03 0.  0.
      99925    2    3    3    0    0 -0.73723270373E+02  0.45058831555E+02  0.36917492615E+03  0.46155662039E+03  0.26320898319E+03 0.  0.
         25    1    4    4    0    0 -0.68537224400E+02  0.14209147035E+02  0.23648639357E+03  0.27653674879E+03  0.12509000000E+03 0.  0.
         25    1    3    3    0    0  0.73723270373E+02 -0.45058831555E+02  0.20307748310E+03  0.25367970187E+03  0.12509000000E+03 0.  0.
         25    1    4    4    0    0 -0.51860459725E+01  0.30849684520E+02  0.13268853258E+03  0.18501987160E+03  0.12509000000E+03 0.  0.
<mgrwt>
<rscale>  2 0.42905731E+03</rscale>
<asrwt>0</asrwt>
<pdfrwt beam="1">  1       21 0.94668286E-01 0.42905731E+03</pdfrwt>
<pdfrwt beam="2">  1       21 0.10513523E-01 0.42905731E+03</pdfrwt>
<totfact> 0.64219793E+04</totfact>
</mgrwt>
</event>
<event>
 6    0  0.4709932E-002  0.4584929E+03  0.7546771E-02  0.1025219E+00
         21   -1    0    0  502  501  0.00000000000E+00  0.00000000000E+00  0.11622422872E+03  0.11622422872E+03  0.00000000000E+00 0. -1.
         21   -1    0    0  501  502 -0.00000000000E+00 -0.00000000000E+00 -0.45217719087E+03  0.45217719087E+03  0.00000000000E+00 0. -1.
      99926    2    1    2    0    0  0.00000000000E+00  0.00000000000E+00 -0.33595296216E+03  0.56840141959E+03  0.45849294543E+03 0.  0.
         25    1    3    3    0    0  0.50978804437E+02 -0.71690749142E+02 -0.21021426915E+03  0.25995374410E+03  0.12509000000E+03 0.  0.
         25    1    3    3    0    0 -0.53927752608E+02  0.13129631607E+01 -0.78981883377E+02  0.15746609913E+03  0.12509000000E+03 0.  0.
         25    1    3    3    0    0  0.29489481715E+01  0.70377785981E+02 -0.46756809629E+02  0.15098157636E+03  0.12509000000E+03 0.  0.
<mgrwt>
<rscale>  2 0.45849295E+03</rscale>
<asrwt>0</asrwt>
<pdfrwt beam="1">  1       21 0.17091798E-01 0.45849295E+03</pdfrwt>
<pdfrwt beam="2">  1       21 0.66496646E-01 0.45849295E+03</pdfrwt>
<totfact> 0.59019391E+04</totfact>
</mgrwt>
</event>
<event>
 7    0  0.4709932E-002  0.4532488E+03  0.7546771E-02  0.1026758E+00
         21   -1    0    0  502  501  0.00000000000E+00  0.00000000000E+00  0.35188860569E+03  0.35188860569E+03  0.00000000000E+00 0.  1.
         21   -1    0    0  501  502 -0.00000000000E+00 -0.00000000000E+00 -0.14595132337E+03  0.14595132337E+03  0.00000000000E+00 0.  1.
      99926    2    1    2    0    0 -0.71054273576E-14 -0.14210854715E-13  0.20593728232E+03  0.49783992906E+03  0.45324875147E+03 0.  0.
      99925    2    3    3    0    0  0.46478313794E+02  0.89711562979E+02  0.77960571533E+02  0.29233093950E+03  0.26300404805E+03 0.  0.
         25    1    4    4    0    0  0.53263905085E+02  0.52896234679E+02  0.12918351616E+02  0.14645629770E+03  0.12509000000E+03 0.  0.
         25    1    4    4    0    0 -0.67855912913E+01  0.36815328300E+02  0.65042219918E+02  0.14587464179E+03  0.12509000000E+03 0.  0.
         25    1    3    3    0    0 -0.46478313794E+02 -0.89711562979E+02  0.12797671079E+03  0.20550898956E+03  0.12509000000E+03 0.  0.
<mgrwt>
<rscale>  2 0.45324875E+03</rscale>
<asrwt>0</asrwt>
<pdfrwt beam="1">  1       21 0.51748324E-01 0.45324875E+03</pdfrwt>
<pdfrwt beam="2">  1       21 0.21463430E-01 0.45324875E+03</pdfrwt>
<totfact> 0.66340137E+04</totfact>
</mgrwt>
</event>
<event>
 7    0  0.4709932E-002  0.4494650E+03  0.7546771E-02  0.1027882E+00
         21   -1    0    0  502  501  0.00000000000E+00  0.00000000000E+00  0.29888460219E+03  0.29888460219E+03  0.00000000000E+00 0. -1.
         21   -1    0    0  501  502 -0.00000000000E+00 -0.00000000000E+00 -0.16897721880E+03  0.16897721880E+03  0.00000000000E+00 0. -1.
      99926    2    1    2    0    0  0.00000000000E+00  0.00000000000E+00  0.12990738339E+03  0.46786182099E+03  0.44946496557E+03 0.  0.
      99925    2    3    3    0    0  0.10445360532E+03 -0.26606261977E+02  0.76565048792E+02  0.29433556476E+03  0.26296914105E+03 0.  0.
         25    1    4    4    0    0  0.26835370719E+02 -0.20034046291E+02  0.27587798053E+01  0.12952458878E+03  0.12509000000E+03 0.  0.
         25    1    3    3    0    0 -0.10445360532E+03  0.26606261977E+02  0.53342334597E+02  0.17352625623E+03  0.12509000000E+03 0.  0.
         25    1    4    4    0    0  0.77618234601E+02 -0.65722156864E+01  0.73806268987E+02  0.16481097598E+03  0.12509000000E+03 0.  0.
<mgrwt>
<rscale>  2 0.44946497E+03</rscale>
<asrwt>0</asrwt>
<pdfrwt beam="1">  1       21 0.43953618E-01 0.44946497E+03</pdfrwt>
<pdfrwt beam="2">  1       21 0.24849591E-01 0.44946497E+03</pdfrwt>
<totfact> 0.70646821E+04</totfact>
</mgrwt>
</event>
<event>
 7    0  0.4709932E-002  0.4615771E+03  0.7546771E-02  0.1024325E+00
         21   -1    0    0  502  501  0.00000000000E+00  0.00000000000E+00  0.41691568689E+03  0.41691568689E+03  0.00000000000E+00 0. -1.
         21   -1    0    0  501  502 -0.00000000000E+00 -0.00000000000E+00 -0.12775570769E+03  0.12775570769E+03  0.00000000000E+00 0. -1.
      99926    2    1    2    0    0 -0.14210854715E-13 -0.35527136788E-14  0.28915997921E+03  0.54467139458E+03  0.46157711652E+03 0.  0.
      99925    2    3    3    0    0 -0.10267500488E+03 -0.30435402278E+02  0.11892305355E+03  0.30782420904E+03  0.26295357132E+03 0.  0.
         25    1    3    3    0    0  0.10267500488E+03  0.30435402278E+02  0.17023692565E+03  0.23684718553E+03  0.12509000000E+03 0.  0.
         25    1    4    4    0    0 -0.63979410299E+02 -0.52806134552E+02  0.75887918209E+02  0.16819137023E+03  0.12509000000E+03 0.  0.
         25    1    4    4    0    0 -0.38695594579E+02  0.22370732274E+02  0.43035135343E+02  0.13963283882E+03  0.12509000000E+03 0.  0.
<mgrwt>
<rscale>  2 0.46157712E+03</rscale>
<asrwt>0</asrwt>
<pdfrwt beam="1">  1       21 0.61311130E-01 0.46157712E+03</pdfrwt>
<pdfrwt beam="2">  1       21 0.18787604E-01 0.46157712E+03</pdfrwt>
<totfact> 0.59084125E+04</totfact>
</mgrwt>
</event>
<event>
 7    0  0.4709932E-002  0.4019252E+03  0.7546771E-02  0.1043115E+00
         21   -1    0    0  502  501  0.00000000000E+00  0.00000000000E+00  0.35051824144E+03  0.35051824144E+03  0.00000000000E+00 0. -1.
         21   -1    0    0  501  502 -0.00000000000E+00 -0.00000000000E+00 -0.11521785450E+03  0.11521785450E+03  0.00000000000E+00 0. -1.
      99926    2    1    2    0    0 -0.17763568394E-14  0.35527136788E-14  0.23530038694E+03  0.46573609594E+03  0.40192516588E+03 0.  0.
      99925    2    3    3    0    0 -0.15134175018E+02 -0.17850408894E+02  0.10671833344E+03  0.28482580620E+03  0.26303850827E+03 0.  0.
         25    1    3    3    0    0  0.15134175018E+02  0.17850408894E+02  0.12858205351E+03  0.18091028974E+03  0.12509000000E+03 0.  0.
         25    1    4    4    0    0 -0.29651047466E+02 -0.42293603412E+02  0.63209713354E+02  0.14936836836E+03  0.12509000000E+03 0.  0.
         25    1    4    4    0    0  0.14516872448E+02  0.24443194518E+02  0.43508620085E+02  0.13545743784E+03  0.12509000000E+03 0.  0.
<mgrwt>
<rscale>  2 0.40192517E+03</rscale>
<asrwt>0</asrwt>
<pdfrwt beam="1">  1       21 0.51546800E-01 0.40192517E+03</pdfrwt>
<pdfrwt beam="2">  1       21 0.16943802E-01 0.40192517E+03</pdfrwt>
<totfact> 0.10575269E+05</totfact>
</mgrwt>
</event>
<event>
 7    0  0.4709932E-002  0.4582253E+03  0.7546771E-02  0.1025297E+00
         21   -1    0    0  502  501  0.00000000000E+00  0.00000000000E+00  0.11404514145E+03  0.11404514145E+03  0.00000000000E+00 0.  1.
         21   -1    0    0  501  502 -0.00000000000E+00 -0.00000000000E+00 -0.46027913480E+03  0.46027913480E+03  0.00000000000E+00 0.  1.
      99926    2    1    2    0    0  0.00000000000E+00  0.00000000000E+00 -0.34623399335E+03  0.57432427625E+03  0.45822526789E+03 0.  0.
      99925    2    3    3    0    0  0.10044123925E+03 -0.50693870628E+02 -0.18060963608E+03  0.33823690495E+03  0.26291833745E+03 0.  0.
         25    1    4    4    0    0  0.22374387296E+02 -0.27747667699E+02 -0.48128667425E+02  0.13868822227E+03  0.12509000000E+03 0.  0.
         25    1    3    3    0    0 -0.10044123925E+03  0.50693870628E+02 -0.16562435727E+03  0.23608737129E+03  0.12509000000E+03 0.  0.
         25    1    4    4    0    0  0.78066851956E+02 -0.22946202929E+02 -0.13248096865E+03  0.19954868268E+03  0.12509000000E+03 0.  0.
<mgrwt>
<rscale>  2 0.45822527E+03</rscale>
<asrwt>0</asrwt>
<pdfrwt beam="1">  1       21 0.16771344E-01 0.45822527E+03</pdfrwt>
<pdfrwt beam="2">  1       21 0.67688108E-01 0.45822527E+03</pdfrwt>
<totfact> 0.58773916E+04</totfact>
</mgrwt>
</event>
<event>
 7    0  0.4709932E-002  0.4824735E+03  0.7546771E-02  0.1018458E+00
         21   -1    0    0  502  501  0.00000000000E+00  0.00000000000E+00  0.51136121737E+02  0.51136121737E+02  0.00000000000E+00 0.  1.
         21   -1    0    0  501  502 -0.00000000000E+00 -0.00000000000E+00 -0.11380444578E+04  0.11380444578E+04  0.00000000000E+00 0.  1.
      99926    2    1    2    0    0 -0.35527136788E-14  0.00000000000E+00 -0.10869083360E+04  0.11891805795E+04  0.48247354305E+03 0.  0.
      99925    2    3    3    0    0  0.25950025211E+02  0.12310762890E+03 -0.80432776432E+03  0.85552180215E+03  0.26295533724E+03 0.  0.
         25    1    4    4    0    0 -0.62460286691E+01  0.38479720180E+02 -0.45703312290E+03  0.47544346170E+03  0.12509000000E+03 0.  0.
         25    1    4    4    0    0  0.32196053880E+02  0.84627908723E+02 -0.34729464142E+03  0.38007834045E+03  0.12509000000E+03 0.  0.
         25    1    3    3    0    0 -0.25950025211E+02 -0.12310762890E+03 -0.28258057172E+03  0.33365877737E+03  0.12509000000E+03 0.  0.
<mgrwt>
<rscale>  2 0.48247354E+03</rscale>
<asrwt>0</asrwt>
<pdfrwt beam="1">  1       21 0.75200177E-02 0.48247354E+03</pdfrwt>
<pdfrwt beam="2">  1       21 0.16735948E+00 0.48247354E+03</pdfrwt>
<totfact> 0.26384422E+04</totfact>
</mgrwt>
</event>
<event>
 7    0  0.4709932E-002  0.4616896E+03  0.7546771E-02  0.1024292E+00
         21   -1    0    0  502  501  0.00000000000E+00  0.00000000000E+00  0.89708266859E+02  0.89708266859E+02  0.00000000000E+00 0. -1.
         21   -1    0    0  501  502 -0.00000000000E+00 -0.00000000000E+00 -0.59402900975E+03  0.59402900975E+03  0.00000000000E+00 0. -1.
      99926    2    1    2    0    0  0.14210854715E-13  0.35527136788E-14 -0.50432074289E+03  0.68373727660E+03  0.46168956206E+03 0.  0.
      99925    2    3    3    0    0 -0.71015053592E+02 -0.16479535890E+02 -0.45540488123E+03  0.53091390614E+03  0.26298527894E+03 0.  0.
         25    1    3    3    0    0  0.71015053592E+02  0.16479535890E+02 -0.48915861652E+02  0.15282337047E+03  0.12509000000E+03 0.  0.
         25    1    4    4    0    0 -0.40604386631E+02  0.28896138810E+02 -0.25622352987E+03  0.28945070117E+03  0.12509000000E+03 0.  0.
         25    1    4    4    0    0 -0.30410666961E+02 -0.45375674699E+02 -0.19918135137E+03  0.24146320496E+03  0.12509000000E+03 0.  0.
<mgrwt>
<rscale>  2 0.46168956E+03</rscale>
<asrwt>0</asrwt>
<pdfrwt beam="1">  1       21 0.13192392E-01 0.46168956E+03</pdfrwt>
<pdfrwt beam="2">  1       21 0.87357208E-01 0.46168956E+03</pdfrwt>
<totfact> 0.51051163E+04</totfact>
</mgrwt>
</event>
<event>
 7    0  0.4709932E-002  0.4523987E+03  0.7546771E-02  0.1027009E+00
         21   -1    0    0  502  501  0.00000000000E+00  0.00000000000E+00  0.29985722100E+03  0.29985722100E+03  0.00000000000E+00 0. -1.
         21   -1    0    0  501  502 -0.00000000000E+00 -0.00000000000E+00 -0.17063504380E+03  0.17063504380E+03  0.00000000000E+00 0. -1.
      99926    2    1    2    0    0  0.00000000000E+00  0.00000000000E+00  0.12922217719E+03  0.47049226480E+03  0.45239871812E+03 0.  0.
      99925    2    3    3    0    0  0.52385403288E+02 -0.71318673548E+02  0.12482617888E+02  0.27786252545E+03  0.26309918971E+03 0.  0.
         25    1    4    4    0    0 -0.10251497037E+02 -0.27957217871E+02 -0.12850044831E+02  0.12922589127E+03  0.12509000000E+03 0.  0.
         25    1    4    4    0    0  0.62636900325E+02 -0.43361455677E+02  0.25332662720E+02  0.14863663418E+03  0.12509000000E+03 0.  0.
         25    1    3    3    0    0 -0.52385403288E+02  0.71318673548E+02  0.11673955930E+03  0.19262973935E+03  0.12509000000E+03 0.  0.
<mgrwt>
<rscale>  2 0.45239872E+03</rscale>
<asrwt>0</asrwt>
<pdfrwt beam="1">  1       21 0.44096650E-01 0.45239872E+03</pdfrwt>
<pdfrwt beam="2">  1       21 0.25093389E-01 0.45239872E+03</pdfrwt>
<totfact> 0.68808309E+04</totfact>
</mgrwt>
</event>
<event>
 7    0  0.4709932E-002  0.4515728E+03  0.7546771E-02  0.1027254E+00
         21   -1    0    0  502  501  0.00000000000E+00  0.00000000000E+00  0.17931923165E+03  0.17931923165E+03  0.00000000000E+00 0. -1.
         21   -1    0    0  501  502 -0.00000000000E+00 -0.00000000000E+00 -0.28429468123E+03  0.28429468123E+03  0.00000000000E+00 0. -1.
      99926    2    1    2    0    0  0.44408920985E-15  0.71054273576E-14 -0.10497544958E+03  0.46361391288E+03  0.45157282381E+03 0.  0.
      99925    2    3    3    0    0  0.37765918237E+01 -0.53649332343E+02  0.32144025909E+02  0.27037371995E+03  0.26301368126E+03 0.  0.
         25    1    4    4    0    0 -0.26527209479E+02 -0.17843828603E+02  0.43633758236E+02  0.13628465805E+03  0.12509000000E+03 0.  0.
         25    1    4    4    0    0  0.30303801302E+02 -0.35805503740E+02 -0.11489732327E+02  0.13408906190E+03  0.12509000000E+03 0.  0.
         25    1    3    3    0    0 -0.37765918237E+01  0.53649332343E+02 -0.13711947548E+03  0.19324019293E+03  0.12509000000E+03 0.  0.
<mgrwt>
<rscale>  2 0.45157282E+03</rscale>
<asrwt>0</asrwt>
<pdfrwt beam="1">  1       21 0.26370475E-01 0.45157282E+03</pdfrwt>
<pdfrwt beam="2">  1       21 0.41808041E-01 0.45157282E+03</pdfrwt>
<totfact> 0.69791985E+04</totfact>
</mgrwt>
</event>
<event>
 7    0  0.4709932E-002  0.4601160E+03  0.7546771E-02  0.1024748E+00
         21   -1    0    0  502  501  0.00000000000E+00  0.00000000000E+00  0.23004953132E+04  0.23004953132E+04  0.00000000000E+00 0. -1.
         21   -1    0    0  501  502 -0.00000000000E+00 -0.00000000000E+00 -0.23006651639E+02  0.23006651639E+02  0.00000000000E+00 0. -1.
      99926    2    1    2    0    0 -0.35527136788E-14 -0.71054273576E-14  0.22774886615E+04  0.23235019648E+04  0.46011604739E+03 0.  0.
      99925    2    3    3    0    0 -0.30349152881E+02 -0.32013972414E+02  0.19789550766E+04  0.19968281597E+04  0.26289453908E+03 0.  0.
         25    1    4    4    0    0 -0.21771705931E+02 -0.36443855707E+02  0.75595993045E+03  0.76741454661E+03  0.12509000000E+03 0.  0.
         25    1    3    3    0    0  0.30349152881E+02  0.32013972414E+02  0.29853358495E+03  0.32667380512E+03  0.12509000000E+03 0.  0.
         25    1    4    4    0    0 -0.85774469503E+01  0.44298832922E+01  0.12229951461E+04  0.12294136131E+04  0.12509000000E+03 0.  0.
<mgrwt>
<rscale>  2 0.46011605E+03</rscale>
<asrwt>0</asrwt>
<pdfrwt beam="1">  1       21 0.33830798E+00 0.46011605E+03</pdfrwt>
<pdfrwt beam="2">  1       21 0.33833327E-02 0.46011605E+03</pdfrwt>
<totfact> 0.87574177E+03</totfact>
</mgrwt>
</event>
<event>
 7    0  0.4709932E-002  0.4595155E+03  0.7546771E-02  0.1024922E+00
         21   -1    0    0  502  501  0.00000000000E+00  0.00000000000E+00  0.21125894410E+03  0.21125894410E+03  0.00000000000E+00 0.  1.
         21   -1    0    0  501  502 -0.00000000000E+00 -0.00000000000E+00 -0.24987645035E+03  0.24987645035E+03  0.00000000000E+00 0.  1.
      99926    2    1    2    0    0  0.00000000000E+00  0.00000000000E+00 -0.38617506256E+02  0.46113539445E+03  0.45951554949E+03 0.  0.
      99925    2    3    3    0    0 -0.10538071142E+03 -0.51372089104E+02 -0.29395813394E+02  0.28944749855E+03  0.26300485679E+03 0.  0.
         25    1    4    4    0    0 -0.56638708528E+02  0.11875418986E+02 -0.29945007491E+02  0.14104318648E+03  0.12509000000E+03 0.  0.
         25    1    4    4    0    0 -0.48742002894E+02 -0.63247508089E+02  0.54919409702E+00  0.14840431207E+03  0.12509000000E+03 0.  0.
         25    1    3    3    0    0  0.10538071142E+03  0.51372089104E+02 -0.92216928622E+01  0.17168789590E+03  0.12509000000E+03 0.  0.
<mgrwt>
<rscale>  2 0.45951555E+03</rscale>
<asrwt>0</asrwt>
<pdfrwt beam="1">  1       21 0.31067492E-01 0.45951555E+03</pdfrwt>
<pdfrwt beam="2">  1       21 0.36746537E-01 0.45951555E+03</pdfrwt>
<totfact> 0.65699534E+04</totfact>
</mgrwt>
</event>
<event>
 7    0  0.4709932E-002  0.4601021E+03  0.7546771E-02  0.1024752E+00
         21   -1    0    0  502  501  0.00000000000E+00  0.00000000000E+00  0.30691253638E+02  0.30691253638E+02  0.00000000000E+00 0.  1.
         21   -1    0    0  501  502 -0.00000000000E+00 -0.00000000000E+00 -0.17243834440E+04  0.17243834440E+04  0.00000000000E+00 0.  1.
      99926    2    1    2    0    0  0.00000000000E+00  0.00000000000E+00 -0.16936921904E+04  0.17550746977E+04  0.46010211757E+03 0.  0.
      99925    2    3    3    0    0 -0.81049018504E+01 -0.11022254417E+03 -0.12177388068E+04  0.12507000055E+04  0.26296007951E+03 0.  0.
         25    1    3    3    0    0  0.81049018504E+01  0.11022254417E+03 -0.47595338360E+03  0.50437469220E+03  0.12509000000E+03 0.  0.
         25    1    4    4    0    0  0.32039369439E+02 -0.62691284986E+02 -0.69076328638E+03  0.70551976890E+03  0.12509000000E+03 0.  0.
         25    1    4    4    0    0 -0.40144271289E+02 -0.47531259183E+02 -0.52697552042E+03  0.54518023656E+03  0.12509000000E+03 0.  0.
<mgrwt>
<rscale>  2 0.46010212E+03</rscale>
<asrwt>0</asrwt>
<pdfrwt beam="1">  1       21 0.45134209E-02 0.46010212E+03</pdfrwt>
<pdfrwt beam="2">  1       21 0.25358573E+00 0.46010212E+03</pdfrwt>
<totfact> 0.17437883E+04</totfact>
</mgrwt>
</event>
<event>
 7    0  0.4709932E-002  0.4569286E+03  0.7546771E-02  0.1025676E+00
         21   -1    0    0  502  501  0.00000000000E+00  0.00000000000E+00  0.65459439394E+03  0.65459439394E+03  0.00000000000E+00 0.  1.
         21   -1    0    0  501  502 -0.00000000000E+00 -0.00000000000E+00 -0.79737816275E+02  0.79737816275E+02  0.00000000000E+00 0.  1.
      99926    2    1    2    0    0  0.00000000000E+00  0.00000000000E+00  0.57485657767E+03  0.73433221022E+03  0.45692856124E+03 0.  0.
      99925    2    3    3    0    0  0.81803108517E+02 -0.77682612953E+02  0.39672419424E+03  0.48916901754E+03  0.26300171959E+03 0.  0.
         25    1    4    4    0    0  0.15616339418E+02 -0.70352492949E+02  0.20669335759E+03  0.25211702738E+03  0.12509000000E+03 0.  0.
         25    1    4    4    0    0  0.66186769099E+02 -0.73301200033E+01  0.19003083665E+03  0.23705199016E+03  0.12509000000E+03 0.  0.
         25    1    3    3    0    0 -0.81803108517E+02  0.77682612953E+02  0.17813238343E+03  0.24516319268E+03  0.12509000000E+03 0.  0.
<mgrwt>
<rscale>  2 0.45692856E+03</rscale>
<asrwt>0</asrwt>
<pdfrwt beam="1">  1       21 0.96263879E-01 0.45692856E+03</pdfrwt>
<pdfrwt beam="2">  1       21 0.11726150E-01 0.45692856E+03</pdfrwt>
<totfact> 0.50311038E+04</totfact>
</mgrwt>
</event>
<event>
 7    0  0.4709932E-002  0.4339049E+03  0.7546771E-02  0.1032633E+00
         21   -1    0    0  502  501  0.00000000000E+00  0.00000000000E+00  0.24057582249E+03  0.24057582249E+03  0.00000000000E+00 0.  1.
         21   -1    0    0  501  502 -0.00000000000E+00 -0.00000000000E+00 -0.19564881035E+03  0.19564881035E+03  0.00000000000E+00 0.  1.
      99926    2    1    2    0    0  0.00000000000E+00  0.00000000000E+00  0.44927012147E+02  0.43622463284E+03  0.43390493645E+03 0.  0.
      99925    2    3    3    0    0  0.90374415047E+02  0.16479926320E+02  0.28112849390E+02  0.28011778791E+03  0.26312833358E+03 0.  0.
         25    1    4    4    0    0  0.55807780248E+02 -0.60218193350E+01 -0.22639989535E+02  0.13896347675E+03  0.12509000000E+03 0.  0.
         25    1    4    4    0    0  0.34566634799E+02  0.22501745655E+02  0.50752838924E+02  0.14115431116E+03  0.12509000000E+03 0.  0.
         25    1    3    3    0    0 -0.90374415047E+02 -0.16479926320E+02  0.16814162758E+02  0.15610684494E+03  0.12509000000E+03 0.  0.
<mgrwt>
<rscale>  2 0.43390494E+03</rscale>
<asrwt>0</asrwt>
<pdfrwt beam="1">  1       21 0.35378798E-01 0.43390494E+03</pdfrwt>
<pdfrwt beam="2">  1       21 0.28771884E-01 0.43390494E+03</pdfrwt>
<totfact> 0.83068861E+04</totfact>
</mgrwt>
</event>
<event>
 7    0  0.4709932E-002  0.4544175E+03  0.7546771E-02  0.1026413E+00
         21   -1    0    0  502  501  0.00000000000E+00  0.00000000000E+00  0.16125064474E+02  0.16125064474E+02  0.00000000000E+00 0. -1.
         21   -1    0    0  501  502 -0.00000000000E+00 -0.00000000000E+00 -0.32014637030E+04  0.32014637030E+04  0.00000000000E+00 0. -1.
      99926    2    1    2    0    0  0.00000000000E+00  0.00000000000E+00 -0.31853386386E+04  0.32175887675E+04  0.45441746720E+03 0.  0.
      99925    2    3    3    0    0  0.32009982545E+02  0.50571008099E+02 -0.26813362514E+04  0.26948574979E+04  0.26288928312E+03 0.  0.
         25    1    3    3    0    0 -0.32009982545E+02 -0.50571008099E+02 -0.50400238714E+03  0.52273126957E+03  0.12509000000E+03 0.  0.
         25    1    4    4    0    0  0.55316536252E+02  0.16112675023E+02 -0.14005043524E+04  0.14072595662E+04  0.12509000000E+03 0.  0.
         25    1    4    4    0    0 -0.23306553707E+02  0.34458333076E+02 -0.12808318990E+04  0.12875979317E+04  0.12509000000E+03 0.  0.
<mgrwt>
<rscale>  2 0.45441747E+03</rscale>
<asrwt>0</asrwt>
<pdfrwt beam="1">  1       21 0.23713325E-02 0.45441747E+03</pdfrwt>
<pdfrwt beam="2">  1       21 0.47080360E+00 0.45441747E+03</pdfrwt>
<totfact> 0.22174913E+03</totfact>
</mgrwt>
</event>
<event>
 7    0  0.4709932E-002  0.4514658E+03  0.7546771E-02  0.1027286E+00
         21   -1    0    0  502  501  0.00000000000E+00  0.00000000000E+00  0.22010159210E+04  0.22010159210E+04  0.00000000000E+00 0.  1.
         21   -1    0    0  501  502 -0.00000000000E+00 -0.00000000000E+00 -0.23150828968E+02  0.23150828968E+02  0.00000000000E+00 0.  1.
      99926    2    1    2    0    0  0.17763568394E-14  0.00000000000E+00  0.21778650921E+04  0.22241667500E+04  0.45146580443E+03 0.  0.
      99925    2    3    3    0    0 -0.80371924882E+01  0.96030018370E+01  0.19125723473E+04  0.19305946760E+04  0.26288021083E+03 0.  0.
         25    1    3    3    0    0  0.80371924882E+01 -0.96030018370E+01  0.26529274477E+03  0.29357207401E+03  0.12509000000E+03 0.  0.
         25    1    4    4    0    0 -0.44107345314E+02  0.51087503584E+01  0.92984200112E+03  0.93926844533E+03  0.12509000000E+03 0.  0.
         25    1    4    4    0    0  0.36070152825E+02  0.44942514786E+01  0.98273034616E+03  0.99132623066E+03  0.12509000000E+03 0.  0.
<mgrwt>
<rscale>  2 0.45146580E+03</rscale>
<asrwt>0</asrwt>
<pdfrwt beam="1">  1       21 0.32367867E+00 0.45146580E+03</pdfrwt>
<pdfrwt beam="2">  1       21 0.34045352E-02 0.45146580E+03</pdfrwt>
<totfact> 0.10673090E+04</totfact>
</mgrwt>
</event>
<event>
 7    0  0.4709932E-002  0.4459265E+03  0.7546771E-02  0.1028944E+00
         21   -1    0    0  502  501  0.00000000000E+00  0.00000000000E+00  0.59692497686E+03  0.59692497686E+03  0.00000000000E+00 0.  1.
         21   -1    0    0  501  502 -0.00000000000E+00 -0.00000000000E+00 -0.83281165236E+02  0.83281165236E+02  0.00000000000E+00 0.  1.
      99926    2    1    2    0    0  0.00000000000E+00  0.00000000000E+00  0.51364381162E+03  0.68020614209E+03  0.44592648556E+03 0.  0.
      99925    2    3    3    0    0 -0.80835367242E+02 -0.63954474299E+02  0.30102386642E+03  0.41285004889E+03  0.26306893265E+03 0.  0.
         25    1    3    3    0    0  0.80835367242E+02  0.63954474299E+02  0.21261994520E+03  0.26735609321E+03  0.12509000000E+03 0.  0.
         25    1    4    4    0    0 -0.14713717225E+02 -0.92759067111E+01  0.10041527401E+03  0.16134829182E+03  0.12509000000E+03 0.  0.
         25    1    4    4    0    0 -0.66121650016E+02 -0.54678567588E+02  0.20060859242E+03  0.25150175706E+03  0.12509000000E+03 0.  0.
<mgrwt>
<rscale>  2 0.44592649E+03</rscale>
<asrwt>0</asrwt>
<pdfrwt beam="1">  1       21 0.87783083E-01 0.44592649E+03</pdfrwt>
<pdfrwt beam="2">  1       21 0.12247230E-01 0.44592649E+03</pdfrwt>
<totfact> 0.58027177E+04</totfact>
</mgrwt>
</event>
<event>
 7    0  0.4709932E-002  0.4475361E+03  0.7546771E-02  0.1028459E+00
         21   -1    0    0  502  501  0.00000000000E+00  0.00000000000E+00  0.12868407566E+04  0.12868407566E+04  0.00000000000E+00 0.  1.
         21   -1    0    0  501  502 -0.00000000000E+00 -0.00000000000E+00 -0.38910898946E+02  0.38910898946E+02  0.00000000000E+00 0.  1.
      99926    2    1    2    0    0 -0.14210854715E-13  0.00000000000E+00  0.12479298576E+04  0.13257516555E+04  0.44753605727E+03 0.  0.
      99925    2    3    3    0    0  0.75124223302E+02  0.39453554469E+02  0.97906161050E+03  0.10173073748E+04  0.26296848824E+03 0.  0.
         25    1    4    4    0    0  0.30974426997E+02  0.55483460114E+01  0.61429271871E+03  0.62768881752E+03  0.12509000000E+03 0.  0.
         25    1    3    3    0    0 -0.75124223302E+02 -0.39453554469E+02  0.26886824712E+03  0.30844428070E+03  0.12509000000E+03 0.  0.
         25    1    4    4    0    0  0.44149796305E+02  0.33905208457E+02  0.36476889179E+03  0.38961855730E+03  0.12509000000E+03 0.  0.
<mgrwt>
<rscale>  2 0.44753606E+03</rscale>
<asrwt>0</asrwt>
<pdfrwt beam="1">  1       21 0.18924126E+00 0.44753606E+03</pdfrwt>
<pdfrwt beam="2">  1       21 0.57221919E-02 0.44753606E+03</pdfrwt>
<totfact> 0.30084433E+04</totfact>
</mgrwt>
</event>
<event>
 7    0  0.4709932E-002  0.4423622E+03  0.7546771E-02  0.1030024E+00
         21   -1    0    0  502  501  0.00000000000E+00  0.00000000000E+00  0.18269433686E+03  0.18269433686E+03  0.00000000000E+00 0. -1.
         21   -1    0    0  501  502 -0.00000000000E+00 -0.00000000000E+00 -0.26777557016E+03  0.26777557016E+03  0.00000000000E+00 0. -1.
      99926    2    1    2    0    0 -0.14210854715E-13  0.35527136788E-14 -0.85081233302E+02  0.45046990702E+03  0.44236220551E+03 0.  0.
      99925    2    3    3    0    0 -0.10009554220E+03  0.13785054598E+02 -0.54874322602E+02  0.28685722153E+03  0.26280549645E+03 0.  0.
         25    1    4    4    0    0 -0.14761688792E+02 -0.39330044313E+01 -0.45961848732E+02  0.13413938877E+03  0.12509000000E+03 0.  0.
         25    1    4    4    0    0 -0.85333853406E+02  0.17718059029E+02 -0.89124738699E+01  0.15271783276E+03  0.12509000000E+03 0.  0.
         25    1    3    3    0    0  0.10009554220E+03 -0.13785054598E+02 -0.30206910700E+02  0.16361268549E+03  0.12509000000E+03 0.  0.
<mgrwt>
<rscale>  2 0.44236221E+03</rscale>
<asrwt>0</asrwt>
<pdfrwt beam="1">  1       21 0.26866814E-01 0.44236221E+03</pdfrwt>
<pdfrwt beam="2">  1       21 0.39378760E-01 0.44236221E+03</pdfrwt>
<totfact> 0.76281129E+04</totfact>
</mgrwt>
</event>
<event>
 7    0  0.4709932E-002  0.4532414E+03  0.7546771E-02  0.1026760E+00
         21   -1    0    0  502  501  0.00000000000E+00  0.00000000000E+00  0.69503799507E+02  0.69503799507E+02  0.00000000000E+00 0. -1.
         21   -1    0    0  501  502 -0.00000000000E+00 -0.00000000000E+00 -0.73890847068E+03  0.73890847068E+03  0.00000000000E+00 0. -1.
      99926    2    1    2    0    0  0.00000000000E+00  0.00000000000E+00 -0.66940467118E+03  0.80841227019E+03  0.45324142000E+03 0.  0.
      99925    2    3    3    0    0  0.16269718800E+02  0.53083613778E+02 -0.59427807423E+03  0.65229024269E+03  0.26312270407E+03 0.  0.
         25    1    4    4    0    0  0.77760055164E+01  0.48791727585E+02 -0.22330516789E+03  0.26067950638E+03  0.12509000000E+03 0.  0.
         25    1    4    4    0    0  0.84937132837E+01  0.42918861928E+01 -0.37097290635E+03  0.39161073631E+03  0.12509000000E+03 0.  0.
         25    1    3    3    0    0 -0.16269718800E+02 -0.53083613778E+02 -0.75126596945E+02  0.15612202750E+03  0.12509000000E+03 0.  0.
<mgrwt>
<rscale>  2 0.45324142E+03</rscale>
<asrwt>0</asrwt>
<pdfrwt beam="1">  1       21 0.10221147E-01 0.45324142E+03</pdfrwt>
<pdfrwt beam="2">  1       21 0.10866301E+00 0.45324142E+03</pdfrwt>
<totfact> 0.48019866E+04</totfact>
</mgrwt>
</event>
<event>
 7    0  0.4709932E-002  0.4304057E+03  0.7546771E-02  0.1033732E+00
         21   -1    0    0  502  501  0.00000000000E+00  0.00000000000E+00  0.30890504718E+03  0.30890504718E+03  0.00000000000E+00 0. -1.
         21   -1    0    0  501  502 -0.00000000000E+00 -0.00000000000E+00 -0.14992398375E+03  0.14992398375E+03  0.00000000000E+00 0. -1.
      99926    2    1    2    0    0  0.00000000000E+00 -0.35527136788E-14  0.15898106343E+03  0.45882903093E+03  0.43040574008E+03 0.  0.
      99925    2    3    3    0    0  0.58518691249E+02 -0.18285548303E+02  0.16969535405E+03  0.31911109140E+03  0.26320443949E+03 0.  0.
         25    1    4    4    0    0  0.32387733541E+02 -0.45764820465E+01  0.37243862311E+02  0.13455304847E+03  0.12509000000E+03 0.  0.
         25    1    4    4    0    0  0.26130957709E+02 -0.13709066256E+02  0.13245149173E+03  0.18455804293E+03  0.12509000000E+03 0.  0.
         25    1    3    3    0    0 -0.58518691249E+02  0.18285548303E+02 -0.10714290619E+02  0.13971793953E+03  0.12509000000E+03 0.  0.
<mgrwt>
<rscale>  2 0.43040574E+03</rscale>
<asrwt>0</asrwt>
<pdfrwt beam="1">  1       21 0.45427213E-01 0.43040574E+03</pdfrwt>
<pdfrwt beam="2">  1       21 0.22047645E-01 0.43040574E+03</pdfrwt>
<totfact> 0.83402220E+04</totfact>
</mgrwt>
</event>
<event>
 7    0  0.4709932E-002  0.4587131E+03  0.7546771E-02  0.1025155E+00
         21   -1    0    0  502  501  0.00000000000E+00  0.00000000000E+00  0.18928546901E+04  0.18928546901E+04  0.00000000000E+00 0.  1.
         21   -1    0    0  501  502 -0.00000000000E+00 -0.00000000000E+00 -0.27791055856E+02  0.27791055856E+02  0.00000000000E+00 0.  1.
      99926    2    1    2    0    0  0.00000000000E+00  0.00000000000E+00  0.18650636342E+04  0.19206457459E+04  0.45871311479E+03 0.  0.
      99925    2    3    3    0    0 -0.70580900993E+02 -0.76120801284E+02  0.94315466857E+03  0.98451557923E+03  0.26259123542E+03 0.  0.
         25    1    3    3    0    0  0.70580900993E+02  0.76120801284E+02  0.92190896566E+03  0.93613016672E+03  0.12509000000E+03 0.  0.
         25    1    4    4    0    0 -0.46167360328E+02 -0.14462868106E+02  0.35312956083E+03  0.37774143874E+03  0.12509000000E+03 0.  0.
         25    1    4    4    0    0 -0.24413540666E+02 -0.61657933178E+02  0.59002510775E+03  0.60677414049E+03  0.12509000000E+03 0.  0.
<mgrwt>
<rscale>  2 0.45871311E+03</rscale>
<asrwt>0</asrwt>
<pdfrwt beam="1">  1       21 0.27836090E+00 0.45871311E+03</pdfrwt>
<pdfrwt beam="2">  1       21 0.40869213E-02 0.45871311E+03</pdfrwt>
<totfact> 0.14622971E+04</totfact>
</mgrwt>
</event>
<event>
 7    0  0.4709932E-002  0.4518866E+03  0.7546771E-02  0.1027161E+00
         21   -1    0    0  502  501  0.00000000000E+00  0.00000000000E+00  0.20328291224E+03  0.20328291224E+03  0.00000000000E+00 0. -1.
         21   -1    0    0  501  502 -0.00000000000E+00 -0.00000000000E+00 -0.25112973569E+03  0.25112973569E+03  0.00000000000E+00 0. -1.
      99926    2    1    2    0    0 -0.71054273576E-14  0.00000000000E+00 -0.47846823452E+02  0.45441264794E+03  0.45188664075E+03 0.  0.
      99925    2    3    3    0    0  0.47359849880E+02  0.99288328265E+02 -0.40066850397E+02  0.28765185041E+03  0.26274913327E+03 0.  0.
         25    1    3    3    0    0 -0.47359849880E+02 -0.99288328265E+02 -0.77799730546E+01  0.16676079752E+03  0.12509000000E+03 0.  0.
         25    1    4    4    0    0  0.46340527615E+02  0.59810538883E+02  0.11635379572E+02  0.14665481656E+03  0.12509000000E+03 0.  0.
         25    1    4    4    0    0  0.10193222654E+01  0.39477789382E+02 -0.51702229969E+02  0.14099703386E+03  0.12509000000E+03 0.  0.
<mgrwt>
<rscale>  2 0.45188664E+03</rscale>
<asrwt>0</asrwt>
<pdfrwt beam="1">  1       21 0.29894546E-01 0.45188664E+03</pdfrwt>
<pdfrwt beam="2">  1       21 0.36930843E-01 0.45188664E+03</pdfrwt>
<totfact> 0.70319375E+04</totfact>
</mgrwt>
</event>
<event>
 7    0  0.4709932E-002  0.4481458E+03  0.7546771E-02  0.1028276E+00
         21   -1    0    0  502  501  0.00000000000E+00  0.00000000000E+00  0.49486485463E+02  0.49486485463E+02  0.00000000000E+00 0.  1.
         21   -1    0    0  501  502 -0.00000000000E+00 -0.00000000000E+00 -0.10145936384E+04  0.10145936384E+04  0.00000000000E+00 0.  1.
      99926    2    1    2    0    0 -0.35527136788E-14  0.00000000000E+00 -0.96510715290E+03  0.10640801238E+04  0.44814583937E+03 0.  0.
      99925    2    3    3    0    0  0.22789731961E+02  0.59833049309E+02 -0.81362810215E+03  0.85745781963E+03  0.26295219751E+03 0.  0.
         25    1    4    4    0    0  0.15525142930E+02  0.63289371338E+02 -0.50550728021E+03  0.52481586583E+03  0.12509000000E+03 0.  0.
         25    1    4    4    0    0  0.72645890311E+01 -0.34563220295E+01 -0.30812082194E+03  0.33264195380E+03  0.12509000000E+03 0.  0.
         25    1    3    3    0    0 -0.22789731961E+02 -0.59833049309E+02 -0.15147905075E+03  0.20662230419E+03  0.12509000000E+03 0.  0.
<mgrwt>
<rscale>  2 0.44814584E+03</rscale>
<asrwt>0</asrwt>
<pdfrwt beam="1">  1       21 0.72774247E-02 0.44814584E+03</pdfrwt>
<pdfrwt beam="2">  1       21 0.14920494E+00 0.44814584E+03</pdfrwt>
<totfact> 0.38799149E+04</totfact>
</mgrwt>
</event>
<event>
 7    0  0.4709932E-002  0.4527401E+03  0.7546771E-02  0.1026908E+00
         21   -1    0    0  502  501  0.00000000000E+00  0.00000000000E+00  0.24269928709E+04  0.24269928709E+04  0.00000000000E+00 0.  1.
         21   -1    0    0  501  502 -0.00000000000E+00 -0.00000000000E+00 -0.21113948115E+02  0.21113948115E+02  0.00000000000E+00 0.  1.
      99926    2    1    2    0    0 -0.35527136788E-14 -0.71054273576E-14  0.24058789228E+04  0.24481068190E+04  0.45274010889E+03 0.  0.
      99925    2    3    3    0    0  0.22478129163E+02  0.32693137815E+02  0.20789712472E+04  0.20958423672E+04  0.26241126869E+03 0.  0.
         25    1    4    4    0    0 -0.20743898394E+01  0.31576121087E+02  0.77652409403E+03  0.78717122103E+03  0.12509000000E+03 0.  0.
         25    1    4    4    0    0  0.24552519002E+02  0.11170167277E+01  0.13024471532E+04  0.13086711462E+04  0.12509000000E+03 0.  0.
         25    1    3    3    0    0 -0.22478129163E+02 -0.32693137815E+02  0.32690767555E+03  0.35226445177E+03  0.12509000000E+03 0.  0.
<mgrwt>
<rscale>  2 0.45274011E+03</rscale>
<asrwt>0</asrwt>
<pdfrwt beam="1">  1       21 0.35691052E+00 0.45274011E+03</pdfrwt>
<pdfrwt beam="2">  1       21 0.31049941E-02 0.45274011E+03</pdfrwt>
<totfact> 0.78138900E+03</totfact>
</mgrwt>
</event>
<event>
 7    0  0.4709932E-002  0.4563192E+03  0.7546771E-02  0.1025854E+00
         21   -1    0    0  502  501  0.00000000000E+00  0.00000000000E+00  0.22698565405E+03  0.22698565405E+03  0.00000000000E+00 0. -1.
         21   -1    0    0  501  502 -0.00000000000E+00 -0.00000000000E+00 -0.22933957764E+03  0.22933957764E+03  0.00000000000E+00 0. -1.
      99926    2    1    2    0    0  0.17763568394E-14  0.00000000000E+00 -0.23539235896E+01  0.45632523168E+03  0.45631916036E+03 0.  0.
      99925    2    3    3    0    0  0.27168269584E+01 -0.34683739795E+02 -0.11061651334E+03  0.28727305218E+03  0.26282969873E+03 0.  0.
         25    1    4    4    0    0 -0.36883147947E+02 -0.13645398175E+02 -0.41803862759E+02  0.13762861089E+03  0.12509000000E+03 0.  0.
         25    1    3    3    0    0 -0.27168269584E+01  0.34683739795E+02  0.10826258975E+03  0.16905217950E+03  0.12509000000E+03 0.  0.
         25    1    4    4    0    0  0.39599974906E+02 -0.21038341620E+02 -0.68812650579E+02  0.14964444129E+03  0.12509000000E+03 0.  0.
<mgrwt>
<rscale>  2 0.45631916E+03</rscale>
<asrwt>0</asrwt>
<pdfrwt beam="1">  1       21 0.33380243E-01 0.45631916E+03</pdfrwt>
<pdfrwt beam="2">  1       21 0.33726408E-01 0.45631916E+03</pdfrwt>
<totfact> 0.67733074E+04</totfact>
</mgrwt>
</event>
<event>
 7    0  0.4709932E-002  0.4614575E+03  0.7546771E-02  0.1024359E+00
         21   -1    0    0  502  501  0.00000000000E+00  0.00000000000E+00  0.32468661794E+03  0.32468661794E+03  0.00000000000E+00 0. -1.
         21   -1    0    0  501  502 -0.00000000000E+00 -0.00000000000E+00 -0.16396043563E+03  0.16396043563E+03  0.00000000000E+00 0. -1.
      99926    2    1    2    0    0  0.00000000000E+00  0.00000000000E+00  0.16072618231E+03  0.48864705356E+03  0.46145751405E+03 0.  0.
      99925    2    3    3    0    0  0.10321506423E+03  0.34099964259E+02  0.15203674922E+03  0.32269774988E+03  0.26306369498E+03 0.  0.
         25    1    4    4    0    0  0.94223599591E+02  0.22844620694E+02  0.93724282913E+02  0.18393399012E+03  0.12509000000E+03 0.  0.
         25    1    3    3    0    0 -0.10321506423E+03 -0.34099964259E+02  0.86894330912E+01  0.16594930369E+03  0.12509000000E+03 0.  0.
         25    1    4    4    0    0  0.89914646375E+01  0.11255343564E+02  0.58312466307E+02  0.13876375976E+03  0.12509000000E+03 0.  0.
<mgrwt>
<rscale>  2 0.46145751E+03</rscale>
<asrwt>0</asrwt>
<pdfrwt beam="1">  1       21 0.47748032E-01 0.46145751E+03</pdfrwt>
<pdfrwt beam="2">  1       21 0.24111829E-01 0.46145751E+03</pdfrwt>
<totfact> 0.62794616E+04</totfact>
</mgrwt>
</event>
<event>
 7    0  0.4709932E-002  0.4531141E+03  0.7546771E-02  0.1026797E+00
         21   -1    0    0  502  501  0.00000000000E+00  0.00000000000E+00  0.17093579521E+03  0.17093579521E+03  0.00000000000E+00 0. -1.
         21   -1    0    0  501  502 -0.00000000000E+00 -0.00000000000E+00 -0.30027699173E+03  0.30027699173E+03  0.00000000000E+00 0. -1.
      99926    2    1    2    0    0 -0.71054273576E-14  0.00000000000E+00 -0.12934119652E+03  0.47121278694E+03  0.45311405347E+03 0.  0.
      99925    2    3    3    0    0  0.34329180993E+02 -0.27532489059E+02  0.24905803250E+02  0.26780144099E+03  0.26298437623E+03 0.  0.
         25    1    3    3    0    0 -0.34329180993E+02  0.27532489059E+02 -0.15424699977E+03  0.20341134595E+03  0.12509000000E+03 0.  0.
         25    1    4    4    0    0  0.54125667652E+02  0.29736133075E+01  0.10375169968E+02  0.13672447669E+03  0.12509000000E+03 0.  0.
         25    1    4    4    0    0 -0.19796486659E+02 -0.30506102367E+02  0.14530633282E+02  0.13107696430E+03  0.12509000000E+03 0.  0.
<mgrwt>
<rscale>  2 0.45311405E+03</rscale>
<asrwt>0</asrwt>
<pdfrwt beam="1">  1       21 0.25137617E-01 0.45311405E+03</pdfrwt>
<pdfrwt beam="2">  1       21 0.44158381E-01 0.45311405E+03</pdfrwt>
<totfact> 0.68362869E+04</totfact>
</mgrwt>
</event>
<event>
 7    0  0.4709932E-002  0.4512969E+03  0.7546771E-02  0.1027336E+00
         21   -1    0    0  502  501  0.00000000000E+00  0.00000000000E+00  0.45105243890E+02  0.45105243890E+02  0.00000000000E+00 0.  1.
         21   -1    0    0  501  502 -0.00000000000E+00 -0.00000000000E+00 -0.11288537231E+04  0.11288537231E+04  0.00000000000E+00 0.  1.
      99926    2    1    2    0    0  0.14210854715E-13  0.71054273576E-14 -0.10837484793E+04  0.11739589670E+04  0.45129689783E+03 0.  0.
      99925    2    3    3    0    0  0.90296640459E+02  0.53381074545E+02 -0.76908430271E+03  0.81946767730E+03  0.26274243484E+03 0.  0.
         25    1    4    4    0    0  0.59690992276E+02  0.18053048614E+02 -0.28694019655E+03  0.31917254208E+03  0.12509000000E+03 0.  0.
         25    1    3    3    0    0 -0.90296640459E+02 -0.53381074545E+02 -0.31466417655E+03  0.35449128974E+03  0.12509000000E+03 0.  0.
         25    1    4    4    0    0  0.30605648182E+02  0.35328025930E+02 -0.48214410616E+03  0.50029513521E+03  0.12509000000E+03 0.  0.
<mgrwt>
<rscale>  2 0.45129690E+03</rscale>
<asrwt>0</asrwt>
<pdfrwt beam="1">  1       21 0.66331239E-02 0.45129690E+03</pdfrwt>
<pdfrwt beam="2">  1       21 0.16600791E+00 0.45129690E+03</pdfrwt>
<totfact> 0.33961823E+04</totfact>
</mgrwt>
</event>
<event>
 7    0  0.4709932E-002  0.4555038E+03  0.7546771E-02  0.1026093E+00
         21   -1    0    0  502  501  0.00000000000E+00  0.00000000000E+00  0.79272595507E+02  0.79272595507E+02  0.00000000000E+00 0.  1.
         21   -1    0    0  501  502 -0.00000000000E+00 -0.00000000000E+00 -0.65433611555E+03  0.65433611555E+03  0.00000000000E+00 0.  1.
      99926    2    1    2    0    0  0.35527136788E-14  0.00000000000E+00 -0.57506352004E+03  0.73360871105E+03  0.45550377480E+03 0.  0.
      99925    2    3    3    0    0  0.11734968274E+02 -0.11263828832E+03 -0.37386303081E+03  0.47101732041E+03  0.26317039507E+03 0.  0.
         25    1    4    4    0    0 -0.30603451370E+02 -0.43855482914E+02 -0.20311460701E+03  0.24446457064E+03  0.12509000000E+03 0.  0.
         25    1    3    3    0    0 -0.11734968274E+02  0.11263828832E+03 -0.20120048923E+03  0.26259139064E+03  0.12509000000E+03 0.  0.
         25    1    4    4    0    0  0.42338419644E+02 -0.68782805402E+02 -0.17074842381E+03  0.22655274977E+03  0.12509000000E+03 0.  0.
<mgrwt>
<rscale>  2 0.45550377E+03</rscale>
<asrwt>0</asrwt>
<pdfrwt beam="1">  1       21 0.11657734E-01 0.45550377E+03</pdfrwt>
<pdfrwt beam="2">  1       21 0.96225902E-01 0.45550377E+03</pdfrwt>
<totfact> 0.50913968E+04</totfact>
</mgrwt>
</event>
<event>
 7    0  0.4709932E-002  0.4558283E+03  0.7546771E-02  0.1025998E+00
         21   -1    0    0  502  501  0.00000000000E+00  0.00000000000E+00  0.53613491920E+02  0.53613491920E+02  0.00000000000E+00 0.  1.
         21   -1    0    0  501  502 -0.00000000000E+00 -0.00000000000E+00 -0.96887681710E+03  0.96887681710E+03  0.00000000000E+00 0.  1.
      99926    2    1    2    0    0  0.35527136788E-14  0.00000000000E+00 -0.91526332518E+03  0.10224903090E+04  0.45582834227E+03 0.  0.
      99925    2    3    3    0    0  0.22032384219E+02 -0.11093175652E+03 -0.55801933271E+03  0.62744340191E+03  0.26364439377E+03 0.  0.
         25    1    3    3    0    0 -0.22032384219E+02  0.11093175652E+03 -0.35724399247E+03  0.39504690711E+03  0.12509000000E+03 0.  0.
         25    1    4    4    0    0  0.10546264860E+02 -0.33453793509E+02 -0.34178217832E+03  0.36564045935E+03  0.12509000000E+03 0.  0.
         25    1    4    4    0    0  0.11486119359E+02 -0.77477963016E+02 -0.21623715440E+03  0.26180294256E+03  0.12509000000E+03 0.  0.
<mgrwt>
<rscale>  2 0.45582834E+03</rscale>
<asrwt>0</asrwt>
<pdfrwt beam="1">  1       21 0.78843377E-02 0.45582834E+03</pdfrwt>
<pdfrwt beam="2">  1       21 0.14248187E+00 0.45582834E+03</pdfrwt>
<totfact> 0.38056546E+04</totfact>
</mgrwt>
</event>
<event>
 7    0  0.4709932E-002  0.4673453E+03  0.7546771E-02  0.1022672E+00
         21   -1    0    0  502  501  0.00000000000E+00  0.00000000000E+00  0.14454737019E+03  0.14454737019E+03  0.00000000000E+00 0.  1.
         21   -1    0    0  501  502 -0.00000000000E+00 -0.00000000000E+00 -0.37775089055E+03  0.37775089055E+03  0.00000000000E+00 0.  1.
      99926    2    1    2    0    0 -0.22204460493E-15  0.00000000000E+00 -0.23320352036E+03  0.52229826075E+03  0.46734525917E+03 0.  0.
      99925    2    3    3    0    0  0.16956905262E+01 -0.29044646816E+02 -0.10462189380E+02  0.26518413141E+03  0.26337558594E+03 0.  0.
         25    1    4    4    0    0  0.63505063479E+01  0.25302476306E+02 -0.14897442869E+02  0.12864674944E+03  0.12509000000E+03 0.  0.
         25    1    4    4    0    0 -0.46548158218E+01 -0.54347123121E+02  0.44352534894E+01  0.13653738197E+03  0.12509000000E+03 0.  0.
         25    1    3    3    0    0 -0.16956905262E+01  0.29044646816E+02 -0.22274133098E+03  0.25711412933E+03  0.12509000000E+03 0.  0.
<mgrwt>
<rscale>  2 0.46734526E+03</rscale>
<asrwt>0</asrwt>
<pdfrwt beam="1">  1       21 0.21256967E-01 0.46734526E+03</pdfrwt>
<pdfrwt beam="2">  1       21 0.55551600E-01 0.46734526E+03</pdfrwt>
<totfact> 0.57852564E+04</totfact>
</mgrwt>
</event>
<event>
 7    0  0.4709932E-002  0.4587112E+03  0.7546771E-02  0.1025156E+00
         21   -1    0    0  502  501  0.00000000000E+00  0.00000000000E+00  0.19801639963E+03  0.19801639963E+03  0.00000000000E+00 0.  1.
         21   -1    0    0  501  502 -0.00000000000E+00 -0.00000000000E+00 -0.26565466711E+03  0.26565466711E+03  0.00000000000E+00 0.  1.
      99926    2    1    2    0    0  0.71054273576E-14 -0.14210854715E-13 -0.67638267479E+02  0.46367106675E+03  0.45871115412E+03 0.  0.
      99925    2    3    3    0    0  0.57925660014E+02 -0.93261415006E+02 -0.24974223925E+01  0.28494246966E+03  0.26293136040E+03 0.  0.
         25    1    4    4    0    0  0.34794822151E+02 -0.37932673204E+02  0.37867340831E+02  0.14046711696E+03  0.12509000000E+03 0.  0.
         25    1    4    4    0    0  0.23130837863E+02 -0.55328741801E+02 -0.40364763223E+02  0.14447535271E+03  0.12509000000E+03 0.  0.
         25    1    3    3    0    0 -0.57925660014E+02  0.93261415006E+02 -0.65140845087E+02  0.17872859708E+03  0.12509000000E+03 0.  0.
<mgrwt>
<rscale>  2 0.45871115E+03</rscale>
<asrwt>0</asrwt>
<pdfrwt beam="1">  1       21 0.29120059E-01 0.45871115E+03</pdfrwt>
<pdfrwt beam="2">  1       21 0.39066863E-01 0.45871115E+03</pdfrwt>
<totfact> 0.65940611E+04</totfact>
</mgrwt>
</event>
<event>
 7    0  0.4709932E-002  0.4511698E+03  0.7546771E-02  0.1027374E+00
         21   -1    0    0  502  501  0.00000000000E+00  0.00000000000E+00  0.18585134300E+04  0.18585134300E+04  0.00000000000E+00 0.  1.
         21   -1    0    0  501  502 -0.00000000000E+00 -0.00000000000E+00 -0.27381319162E+02  0.27381319162E+02  0.00000000000E+00 0.  1.
      99926    2    1    2    0    0  0.00000000000E+00 -0.17763568394E-14  0.18311321108E+04  0.18858947491E+04  0.45116981013E+03 0.  0.
      99925    2    3    3    0    0  0.10876588505E+03 -0.11849326147E+02  0.11806700272E+04  0.12145387671E+04  0.26296820989E+03 0.  0.
         25    1    4    4    0    0  0.60147005750E+02 -0.25324226942E+02  0.45264354026E+03  0.47412304459E+03  0.12509000000E+03 0.  0.
         25    1    4    4    0    0  0.48618879300E+02  0.13474900795E+02  0.72802648695E+03  0.74041572253E+03  0.12509000000E+03 0.  0.
         25    1    3    3    0    0 -0.10876588505E+03  0.11849326147E+02  0.65046208360E+03  0.67135598201E+03  0.12509000000E+03 0.  0.
<mgrwt>
<rscale>  2 0.45116981E+03</rscale>
<asrwt>0</asrwt>
<pdfrwt beam="1">  1       21 0.27331071E+00 0.45116981E+03</pdfrwt>
<pdfrwt beam="2">  1       21 0.40266658E-02 0.45116981E+03</pdfrwt>
<totfact> 0.16137895E+04</totfact>
</mgrwt>
</event>
<event>
 7    0  0.4709932E-002  0.4560395E+03  0.7546771E-02  0.1025936E+00
         21   -1    0    0  502  501  0.00000000000E+00  0.00000000000E+00  0.31683740333E+02  0.31683740333E+02  0.00000000000E+00 0. -1.
         21   -1    0    0  501  502 -0.00000000000E+00 -0.00000000000E+00 -0.16409993829E+04  0.16409993829E+04  0.00000000000E+00 0. -1.
      99926    2    1    2    0    0  0.00000000000E+00  0.00000000000E+00 -0.16093156426E+04  0.16726831233E+04  0.45603946468E+03 0.  0.
      99925    2    3    3    0    0  0.98041194813E+02  0.54835130403E+02 -0.10737893046E+04  0.11113855781E+04  0.26369578145E+03 0.  0.
         25    1    4    4    0    0  0.46776444096E+02 -0.91483688170E+01 -0.59047738165E+03  0.60546079536E+03  0.12509000000E+03 0.  0.
         25    1    4    4    0    0  0.51264750717E+02  0.63983499220E+02 -0.48331192293E+03  0.50592478273E+03  0.12509000000E+03 0.  0.
         25    1    3    3    0    0 -0.98041194813E+02 -0.54835130403E+02 -0.53552633802E+03  0.56129754518E+03  0.12509000000E+03 0.  0.
<mgrwt>
<rscale>  2 0.45603946E+03</rscale>
<asrwt>0</asrwt>
<pdfrwt beam="1">  1       21 0.46593736E-02 0.45603946E+03</pdfrwt>
<pdfrwt beam="2">  1       21 0.24132344E+00 0.45603946E+03</pdfrwt>
<totfact> 0.19676820E+04</totfact>
</mgrwt>
</event>
<event>
 7    0  0.4709932E-002  0.4563193E+03  0.7546771E-02  0.1025854E+00
         21   -1    0    0  502  501  0.00000000000E+00  0.00000000000E+00  0.82823684291E+02  0.82823684291E+02  0.00000000000E+00 0. -1.
         21   -1    0    0  501  502 -0.00000000000E+00 -0.00000000000E+00 -0.62852597054E+03  0.62852597054E+03  0.00000000000E+00 0. -1.
      99926    2    1    2    0    0  0.00000000000E+00  0.00000000000E+00 -0.54570228625E+03  0.71134965483E+03  0.45631934674E+03 0.  0.
      99925    2    3    3    0    0 -0.10654903641E+03 -0.17888979024E+02 -0.28419351397E+03  0.40198408014E+03  0.26296869503E+03 0.  0.
         25    1    4    4    0    0 -0.44860518143E+02 -0.22313073673E+02 -0.19262374680E+03  0.23507818971E+03  0.12509000000E+03 0.  0.
         25    1    4    4    0    0 -0.61688518265E+02  0.44240946499E+01 -0.91569767170E+02  0.16690589043E+03  0.12509000000E+03 0.  0.
         25    1    3    3    0    0  0.10654903641E+03  0.17888979024E+02 -0.26150877228E+03  0.30936557470E+03  0.12509000000E+03 0.  0.
<mgrwt>
<rscale>  2 0.45631935E+03</rscale>
<asrwt>0</asrwt>
<pdfrwt beam="1">  1       21 0.12179953E-01 0.45631935E+03</pdfrwt>
<pdfrwt beam="2">  1       21 0.92430291E-01 0.45631935E+03</pdfrwt>
<totfact> 0.51751816E+04</totfact>
</mgrwt>
</event>
<event>
 7    0  0.4709932E-002  0.4688583E+03  0.7546771E-02  0.1022243E+00
         21   -1    0    0  502  501  0.00000000000E+00  0.00000000000E+00  0.15296243102E+03  0.15296243102E+03  0.00000000000E+00 0.  1.
         21   -1    0    0  501  502 -0.00000000000E+00 -0.00000000000E+00 -0.35928451569E+03  0.35928451569E+03  0.00000000000E+00 0.  1.
      99926    2    1    2    0    0  0.00000000000E+00  0.14210854715E-13 -0.20632208467E+03  0.51224694671E+03  0.46885832806E+03 0.  0.
      99925    2    3    3    0    0 -0.60501329703E+02  0.10809984877E+03 -0.10484895598E+03  0.30904681840E+03  0.26300312582E+03 0.  0.
         25    1    4    4    0    0  0.25686826360E+01  0.77457804404E+02 -0.58267428051E+02  0.15826847717E+03  0.12509000000E+03 0.  0.
         25    1    4    4    0    0 -0.63070012339E+02  0.30642044368E+02 -0.46581527933E+02  0.15077834123E+03  0.12509000000E+03 0.  0.
         25    1    3    3    0    0  0.60501329703E+02 -0.10809984877E+03 -0.10147312869E+03  0.20320012831E+03  0.12509000000E+03 0.  0.
<mgrwt>
<rscale>  2 0.46885833E+03</rscale>
<asrwt>0</asrwt>
<pdfrwt beam="1">  1       21 0.22494476E-01 0.46885833E+03</pdfrwt>
<pdfrwt beam="2">  1       21 0.52835957E-01 0.46885833E+03</pdfrwt>
<totfact> 0.57794768E+04</totfact>
</mgrwt>
</event>
<event>
 7    0  0.4709932E-002  0.4565774E+03  0.7546771E-02  0.1025779E+00
         21   -1    0    0  502  501  0.00000000000E+00  0.00000000000E+00  0.41271536765E+02  0.41271536765E+02  0.00000000000E+00 0. -1.
         21   -1    0    0  501  502 -0.00000000000E+00 -0.00000000000E+00 -0.12627523706E+04  0.12627523706E+04  0.00000000000E+00 0. -1.
      99926    2    1    2    0    0  0.00000000000E+00  0.00000000000E+00 -0.12214808339E+04  0.13040239074E+04  0.45657740150E+03 0.  0.
      99925    2    3    3    0    0  0.20200560890E+02  0.10759564394E+03 -0.86546433720E+03  0.91111152626E+03  0.26288934755E+03 0.  0.
         25    1    3    3    0    0 -0.20200560890E+02 -0.10759564394E+03 -0.35601649668E+03  0.39291238115E+03  0.12509000000E+03 0.  0.
         25    1    4    4    0    0  0.96268879225E+01  0.58297958209E+02 -0.30932149175E+03  0.33884896674E+03  0.12509000000E+03 0.  0.
         25    1    4    4    0    0  0.10573672968E+02  0.49297685733E+02 -0.55614284546E+03  0.57226255952E+03  0.12509000000E+03 0.  0.
<mgrwt>
<rscale>  2 0.45657740E+03</rscale>
<asrwt>0</asrwt>
<pdfrwt beam="1">  1       21 0.60693428E-02 0.45657740E+03</pdfrwt>
<pdfrwt beam="2">  1       21 0.18569890E+00 0.45657740E+03</pdfrwt>
<totfact> 0.28645026E+04</totfact>
</mgrwt>
</event>
<event>
 6    0  0.4709932E-002  0.4519191E+03  0.7546771E-02  0.1027151E+00
         21   -1    0    0  502  501  0.00000000000E+00  0.00000000000E+00  0.11837655014E+03  0.11837655014E+03  0.00000000000E+00 0. -1.
         21   -1    0    0  501  502 -0.00000000000E+00 -0.00000000000E+00 -0.43131612233E+03  0.43131612233E+03  0.00000000000E+00 0. -1.
      99926    2    1    2    0    0 -0.14210854715E-13  0.88817841970E-15 -0.31293957220E+03  0.54969267247E+03  0.45191908382E+03 0.  0.
         25    1    3    3    0    0 -0.86477855821E+02 -0.39089047324E+01 -0.16833695282E+03  0.22688882050E+03  0.12509000000E+03 0.  0.
         25    1    3    3    0    0  0.94279290824E+02  0.32075216701E+02 -0.86910818339E+02  0.18198462201E+03  0.12509000000E+03 0.  0.
         25    1    3    3    0    0 -0.78014350027E+01 -0.28166311969E+02 -0.57691801033E+02  0.14081922995E+03  0.12509000000E+03 0.  0.
<mgrwt>
<rscale>  2 0.45191908E+03</rscale>
<asrwt>0</asrwt>
<pdfrwt beam="1">  1       21 0.17408317E-01 0.45191908E+03</pdfrwt>
<pdfrwt beam="2">  1       21 0.63428840E-01 0.45191908E+03</pdfrwt>
<totfact> 0.63418635E+04</totfact>
</mgrwt>
</event>
<event>
 7    0  0.4709932E-002  0.4525873E+03  0.7546771E-02  0.1026953E+00
         21   -1    0    0  502  501  0.00000000000E+00  0.00000000000E+00  0.76970210138E+02  0.76970210138E+02  0.00000000000E+00 0. -1.
         21   -1    0    0  501  502 -0.00000000000E+00 -0.00000000000E+00 -0.66530699382E+03  0.66530699382E+03  0.00000000000E+00 0. -1.
      99926    2    1    2    0    0  0.71054273576E-14  0.00000000000E+00 -0.58833678368E+03  0.74227720395E+03  0.45258731365E+03 0.  0.
      99925    2    3    3    0    0  0.50918417039E+02  0.96941477704E+02 -0.39945005374E+03  0.49065041655E+03  0.26303450445E+03 0.  0.
         25    1    4    4    0    0 -0.51919513500E+00  0.37800904428E+02 -0.24061457081E+03  0.27381025862E+03  0.12509000000E+03 0.  0.
         25    1    3    3    0    0 -0.50918417039E+02 -0.96941477704E+02 -0.18888672994E+03  0.25162678740E+03  0.12509000000E+03 0.  0.
         25    1    4    4    0    0  0.51437612174E+02  0.59140573275E+02 -0.15883548294E+03  0.21684015794E+03  0.12509000000E+03 0.  0.
<mgrwt>
<rscale>  2 0.45258731E+03</rscale>
<asrwt>0</asrwt>
<pdfrwt beam="1">  1       21 0.11319149E-01 0.45258731E+03</pdfrwt>
<pdfrwt beam="2">  1       21 0.97839262E-01 0.45258731E+03</pdfrwt>
<totfact> 0.51639407E+04</totfact>
</mgrwt>
</event>
<event>
 7    0  0.4709932E-002  0.4462825E+03  0.7546771E-02  0.1028836E+00
         21   -1    0    0  502  501  0.00000000000E+00  0.00000000000E+00  0.39428106088E+02  0.39428106088E+02  0.00000000000E+00 0.  1.
         21   -1    0    0  501  502 -0.00000000000E+00 -0.00000000000E+00 -0.12628559661E+04  0.12628559661E+04  0.00000000000E+00 0.  1.
      99926    2    1    2    0    0  0.00000000000E+00  0.00000000000E+00 -0.12234278600E+04  0.13022840722E+04  0.44628250697E+03 0.  0.
      99925    2    3    3    0    0 -0.41665116641E+02  0.76883359665E+02 -0.94449394734E+03  0.98432390381E+03  0.26301653581E+03 0.  0.
         25    1    3    3    0    0  0.41665116641E+02 -0.76883359665E+02 -0.27893391268E+03  0.31796016839E+03  0.12509000000E+03 0.  0.
         25    1    4    4    0    0  0.98692803162E+01  0.55661749076E+02 -0.54451298517E+03  0.56154922502E+03  0.12509000000E+03 0.  0.
         25    1    4    4    0    0 -0.51534396957E+02  0.21221610589E+02 -0.39998096217E+03  0.42277467879E+03  0.12509000000E+03 0.  0.
<mgrwt>
<rscale>  2 0.44628251E+03</rscale>
<asrwt>0</asrwt>
<pdfrwt beam="1">  1       21 0.57982498E-02 0.44628251E+03</pdfrwt>
<pdfrwt beam="2">  1       21 0.18571415E+00 0.44628251E+03</pdfrwt>
<totfact> 0.31104294E+04</totfact>
</mgrwt>
</event>
<event>
 7    0  0.4709932E-002  0.4724066E+03  0.7546771E-02  0.1021243E+00
         21   -1    0    0  502  501  0.00000000000E+00  0.00000000000E+00  0.31530621684E+03  0.31530621684E+03  0.00000000000E+00 0.  1.
         21   -1    0    0  501  502 -0.00000000000E+00 -0.00000000000E+00 -0.17694547377E+03  0.17694547377E+03  0.00000000000E+00 0.  1.
      99926    2    1    2    0    0  0.00000000000E+00 -0.14210854715E-13  0.13836074307E+03  0.49225169061E+03  0.47240663806E+03 0.  0.
      99925    2    3    3    0    0  0.84344251053E+02  0.94058832764E+02  0.11092523768E+03  0.31235941239E+03  0.26325458676E+03 0.  0.
         25    1    4    4    0    0  0.53017030377E+02  0.89153497055E+02  0.70440045597E+02  0.17711143292E+03  0.12509000000E+03 0.  0.
         25    1    3    3    0    0 -0.84344251053E+02 -0.94058832764E+02  0.27435505387E+02  0.17989227822E+03  0.12509000000E+03 0.  0.
         25    1    4    4    0    0  0.31327220676E+02  0.49053357094E+01  0.40485192081E+02  0.13524797947E+03  0.12509000000E+03 0.  0.
<mgrwt>
<rscale>  2 0.47240664E+03</rscale>
<asrwt>0</asrwt>
<pdfrwt beam="1">  1       21 0.46368562E-01 0.47240664E+03</pdfrwt>
<pdfrwt beam="2">  1       21 0.26021393E-01 0.47240664E+03</pdfrwt>
<totfact> 0.57459482E+04</totfact>
</mgrwt>
</event>
<event>
 7    0  0.4709932E-002  0.4551950E+03  0.7546771E-02  0.1026184E+00
         21   -1    0    0  502  501  0.00000000000E+00  0.00000000000E+00  0.35116231644E+03  0.35116231644E+03  0.00000000000E+00 0. -1.
         21   -1    0    0  501  502 -0.00000000000E+00 -0.00000000000E+00 -0.14751191684E+03  0.14751191684E+03  0.00000000000E+00 0. -1.
      99926    2    1    2    0    0  0.17763568394E-14 -0.35527136788E-14  0.20365039960E+03  0.49867423329E+03  0.45519501940E+03 0.  0.
      99925    2    3    3    0    0 -0.15318187310E+02 -0.21077888899E+02  0.73585791693E+01  0.26445871047E+03  0.26306907190E+03 0.  0.
         25    1    4    4    0    0 -0.11403588266E+02  0.60925472478E+01  0.40600894450E+02  0.13214802945E+03  0.12509000000E+03 0.  0.
         25    1    4    4    0    0 -0.39145990437E+01 -0.27170436147E+02 -0.33242315280E+02  0.13231068102E+03  0.12509000000E+03 0.  0.
         25    1    3    3    0    0  0.15318187310E+02  0.21077888899E+02  0.19629182043E+03  0.23421552282E+03  0.12509000000E+03 0.  0.
<mgrwt>
<rscale>  2 0.45519502E+03</rscale>
<asrwt>0</asrwt>
<pdfrwt beam="1">  1       21 0.51641517E-01 0.45519502E+03</pdfrwt>
<pdfrwt beam="2">  1       21 0.21692929E-01 0.45519502E+03</pdfrwt>
<totfact> 0.65262807E+04</totfact>
</mgrwt>
</event>
<event>
 7    0  0.4709932E-002  0.4522720E+03  0.7546771E-02  0.1027047E+00
         21   -1    0    0  502  501  0.00000000000E+00  0.00000000000E+00  0.46892395112E+02  0.46892395112E+02  0.00000000000E+00 0.  1.
         21   -1    0    0  501  502 -0.00000000000E+00 -0.00000000000E+00 -0.10905284238E+04  0.10905284238E+04  0.00000000000E+00 0.  1.
      99926    2    1    2    0    0 -0.35527136788E-14  0.00000000000E+00 -0.10436360286E+04  0.11374208189E+04  0.45227199660E+03 0.  0.
      99925    2    3    3    0    0 -0.17229865247E+02  0.42721968976E+02 -0.40506922355E+03  0.48508876572E+03  0.26288400460E+03 0.  0.
         25    1    3    3    0    0  0.17229865247E+02 -0.42721968976E+02 -0.63856680509E+03  0.65233205314E+03  0.12509000000E+03 0.  0.
         25    1    4    4    0    0  0.25967581607E+02  0.33853420152E+02 -0.23246065484E+03  0.26740574695E+03  0.12509000000E+03 0.  0.
         25    1    4    4    0    0 -0.43197446854E+02  0.88685488232E+01 -0.17260856871E+03  0.21768301878E+03  0.12509000000E+03 0.  0.
<mgrwt>
<rscale>  2 0.45227200E+03</rscale>
<asrwt>0</asrwt>
<pdfrwt beam="1">  1       21 0.68959404E-02 0.45227200E+03</pdfrwt>
<pdfrwt beam="2">  1       21 0.16037183E+00 0.45227200E+03</pdfrwt>
<totfact> 0.34942264E+04</totfact>
</mgrwt>
</event>
<event>
 7    0  0.4709932E-002  0.4546080E+03  0.7546771E-02  0.1026357E+00
         21   -1    0    0  502  501  0.00000000000E+00  0.00000000000E+00  0.40471312582E+03  0.40471312582E+03  0.00000000000E+00 0.  1.
         21   -1    0    0  501  502 -0.00000000000E+00 -0.00000000000E+00 -0.12766356024E+03  0.12766356024E+03  0.00000000000E+00 0.  1.
      99926    2    1    2    0    0  0.00000000000E+00 -0.14210854715E-13  0.27704956558E+03  0.53237668606E+03  0.45460804444E+03 0.  0.
      99925    2    3    3    0    0 -0.84240834623E+02  0.67471811945E+02  0.21325768478E+03  0.35527254782E+03  0.26285124974E+03 0.  0.
         25    1    3    3    0    0  0.84240834623E+02 -0.67471811945E+02  0.63791880807E+02  0.17710413824E+03  0.12509000000E+03 0.  0.
         25    1    4    4    0    0 -0.14874073724E+02  0.30929286818E+02  0.61500537097E+02  0.14355376350E+03  0.12509000000E+03 0.  0.
         25    1    4    4    0    0 -0.69366760900E+02  0.36542525127E+02  0.15175714768E+03  0.21171878432E+03  0.12509000000E+03 0.  0.
<mgrwt>
<rscale>  2 0.45460804E+03</rscale>
<asrwt>0</asrwt>
<pdfrwt beam="1">  1       21 0.59516636E-01 0.45460804E+03</pdfrwt>
<pdfrwt beam="2">  1       21 0.18774053E-01 0.45460804E+03</pdfrwt>
<totfact> 0.63242109E+04</totfact>
</mgrwt>
</event>
<event>
 7    0  0.4709932E-002  0.4583807E+03  0.7546771E-02  0.1025252E+00
         21   -1    0    0  502  501  0.00000000000E+00  0.00000000000E+00  0.17463485898E+03  0.17463485898E+03  0.00000000000E+00 0. -1.
         21   -1    0    0  501  502 -0.00000000000E+00 -0.00000000000E+00 -0.30078879358E+03  0.30078879358E+03  0.00000000000E+00 0. -1.
      99926    2    1    2    0    0  0.00000000000E+00  0.71054273576E-14 -0.12615393460E+03  0.47542365257E+03  0.45838066517E+03 0.  0.
      99925    2    3    3    0    0  0.98270807944E+02  0.57235698347E+02 -0.54475067983E+02  0.29179782410E+03  0.26314513155E+03 0.  0.
         25    1    4    4    0    0  0.74271937649E+02  0.25943570665E+02  0.48350436778E+01  0.14785220772E+03  0.12509000000E+03 0.  0.
         25    1    4    4    0    0  0.23998870295E+02  0.31292127682E+02 -0.59310111661E+02  0.14394561638E+03  0.12509000000E+03 0.  0.
         25    1    3    3    0    0 -0.98270807944E+02 -0.57235698347E+02 -0.71678866614E+02  0.18362582846E+03  0.12509000000E+03 0.  0.
<mgrwt>
<rscale>  2 0.45838067E+03</rscale>
<asrwt>0</asrwt>
<pdfrwt beam="1">  1       21 0.25681597E-01 0.45838067E+03</pdfrwt>
<pdfrwt beam="2">  1       21 0.44233645E-01 0.45838067E+03</pdfrwt>
<totfact> 0.65266308E+04</totfact>
</mgrwt>
</event>
<event>
 7    0  0.4709932E-002  0.4508818E+03  0.7546771E-02  0.1027459E+00
         21   -1    0    0  502  501  0.00000000000E+00  0.00000000000E+00  0.59870281298E+03  0.59870281298E+03  0.00000000000E+00 0. -1.
         21   -1    0    0  501  502 -0.00000000000E+00 -0.00000000000E+00 -0.84889541256E+02  0.84889541256E+02  0.00000000000E+00 0. -1.
      99926    2    1    2    0    0  0.14210854715E-13  0.00000000000E+00  0.51381327173E+03  0.68359235424E+03  0.45088183438E+03 0.  0.
      99925    2    3    3    0    0  0.10149304475E+03  0.38024196996E+02  0.30370987237E+03  0.41612717106E+03  0.26301227772E+03 0.  0.
         25    1    3    3    0    0 -0.10149304475E+03 -0.38024196996E+02  0.21010339935E+03  0.26746518317E+03  0.12509000000E+03 0.  0.
         25    1    4    4    0    0  0.32716743550E+02  0.35491697920E+02  0.19513544535E+03  0.23676020794E+03  0.12509000000E+03 0.  0.
         25    1    4    4    0    0  0.68776301202E+02  0.25324990758E+01  0.10857442702E+03  0.17936696313E+03  0.12509000000E+03 0.  0.
<mgrwt>
<rscale>  2 0.45088183E+03</rscale>
<asrwt>0</asrwt>
<pdfrwt beam="1">  1       21 0.88044529E-01 0.45088183E+03</pdfrwt>
<pdfrwt beam="2">  1       21 0.12483756E-01 0.45088183E+03</pdfrwt>
<totfact> 0.55583554E+04</totfact>
</mgrwt>
</event>
<event>
 7    0  0.4709932E-002  0.4532372E+03  0.7546771E-02  0.1026761E+00
         21   -1    0    0  502  501  0.00000000000E+00  0.00000000000E+00  0.10290673811E+03  0.10290673811E+03  0.00000000000E+00 0. -1.
         21   -1    0    0  501  502 -0.00000000000E+00 -0.00000000000E+00 -0.49905376722E+03  0.49905376722E+03  0.00000000000E+00 0. -1.
      99926    2    1    2    0    0 -0.14210854715E-13  0.00000000000E+00 -0.39614702911E+03  0.60196050533E+03  0.45323722409E+03 0.  0.
      99925    2    3    3    0    0 -0.93460852634E+02 -0.59711436136E+02 -0.23444538541E+03  0.36937650705E+03  0.26300946492E+03 0.  0.
         25    1    4    4    0    0 -0.55837997114E+01 -0.14859568670E+02 -0.10101117137E+03  0.16156345639E+03  0.12509000000E+03 0.  0.
         25    1    4    4    0    0 -0.87877052922E+02 -0.44851867465E+02 -0.13343421404E+03  0.20781305065E+03  0.12509000000E+03 0.  0.
         25    1    3    3    0    0  0.93460852634E+02  0.59711436136E+02 -0.16170164370E+03  0.23258399828E+03  0.12509000000E+03 0.  0.
<mgrwt>
<rscale>  2 0.45323722E+03</rscale>
<asrwt>0</asrwt>
<pdfrwt beam="1">  1       21 0.15133344E-01 0.45323722E+03</pdfrwt>
<pdfrwt beam="2">  1       21 0.73390260E-01 0.45323722E+03</pdfrwt>
<totfact> 0.59380449E+04</totfact>
</mgrwt>
</event>
<event>
 7    0  0.4709932E-002  0.4337740E+03  0.7546771E-02  0.1032674E+00
         21   -1    0    0  502  501  0.00000000000E+00  0.00000000000E+00  0.13138496602E+03  0.13138496602E+03  0.00000000000E+00 0.  1.
         21   -1    0    0  501  502 -0.00000000000E+00 -0.00000000000E+00 -0.35803156931E+03  0.35803156931E+03  0.00000000000E+00 0.  1.
      99926    2    1    2    0    0 -0.17763568394E-14 -0.17763568394E-14 -0.22664660329E+03  0.48941653533E+03  0.43377397602E+03 0.  0.
      99925    2    3    3    0    0 -0.15843159213E+02 -0.14908103505E+02 -0.44226595958E+02  0.26716032187E+03  0.26257453903E+03 0.  0.
         25    1    3    3    0    0  0.15843159213E+02  0.14908103505E+02 -0.18242000734E+03  0.22225621346E+03  0.12509000000E+03 0.  0.
         25    1    4    4    0    0  0.23966090807E+02 -0.28198783679E+02 -0.34081112289E+02  0.13482794675E+03  0.12509000000E+03 0.  0.
         25    1    4    4    0    0 -0.39809250020E+02  0.13290680174E+02 -0.10145483669E+02  0.13233237512E+03  0.12509000000E+03 0.  0.
<mgrwt>
<rscale>  2 0.43377398E+03</rscale>
<asrwt>0</asrwt>
<pdfrwt beam="1">  1       21 0.19321319E-01 0.43377398E+03</pdfrwt>
<pdfrwt beam="2">  1       21 0.52651701E-01 0.43377398E+03</pdfrwt>
<totfact> 0.78424283E+04</totfact>
</mgrwt>
</event>
<event>
 7    0  0.4709932E-002  0.4575029E+03  0.7546771E-02  0.1025508E+00
         21   -1    0    0  502  501  0.00000000000E+00  0.00000000000E+00  0.10142828077E+03  0.10142828077E+03  0.00000000000E+00 0. -1.
         21   -1    0    0  501  502 -0.00000000000E+00 -0.00000000000E+00 -0.51590359766E+03  0.51590359766E+03  0.00000000000E+00 0. -1.
      99926    2    1    2    0    0 -0.28421709430E-13 -0.71054273576E-14 -0.41447531689E+03  0.61733187843E+03  0.45750285225E+03 0.  0.
      99925    2    3    3    0    0 -0.10582294285E+03 -0.42012506004E+02 -0.28766149657E+03  0.40592516373E+03  0.26279755716E+03 0.  0.
         25    1    4    4    0    0 -0.95068660540E+02 -0.30597276439E+02 -0.15222621442E+03  0.22089493430E+03  0.12509000000E+03 0.  0.
         25    1    3    3    0    0  0.10582294285E+03  0.42012506004E+02 -0.12681382033E+03  0.21140671470E+03  0.12509000000E+03 0.  0.
         25    1    4    4    0    0 -0.10754282311E+02 -0.11415229566E+02 -0.13543528214E+03  0.18503022943E+03  0.12509000000E+03 0.  0.
<mgrwt>
<rscale>  2 0.45750285E+03</rscale>
<asrwt>0</asrwt>
<pdfrwt beam="1">  1       21 0.14915924E-01 0.45750285E+03</pdfrwt>
<pdfrwt beam="2">  1       21 0.75868176E-01 0.45750285E+03</pdfrwt>
<totfact> 0.56498879E+04</totfact>
</mgrwt>
</event>
<event>
 7    0  0.4709932E-002  0.4576977E+03  0.7546771E-02  0.1025451E+00
         21   -1    0    0  502  501  0.00000000000E+00  0.00000000000E+00  0.36590411137E+02  0.36590411137E+02  0.00000000000E+00 0. -1.
         21   -1    0    0  501  502 -0.00000000000E+00 -0.00000000000E+00 -0.14312981752E+04  0.14312981752E+04  0.00000000000E+00 0. -1.
      99926    2    1    2    0    0  0.00000000000E+00  0.00000000000E+00 -0.13947077641E+04  0.14678885863E+04  0.45769766742E+03 0.  0.
      99925    2    3    3    0    0  0.18858470513E+02 -0.19114818299E+01 -0.50945547875E+03  0.57364118633E+03  0.26298294650E+03 0.  0.
         25    1    4    4    0    0  0.25280017877E+02  0.24034797938E+02 -0.19628950399E+03  0.23535893502E+03  0.12509000000E+03 0.  0.
         25    1    3    3    0    0 -0.18858470513E+02  0.19114818299E+01 -0.88525228532E+03  0.89424740002E+03  0.12509000000E+03 0.  0.
         25    1    4    4    0    0 -0.64215473638E+01 -0.25946279768E+02 -0.31316597475E+03  0.33828225131E+03  0.12509000000E+03 0.  0.
<mgrwt>
<rscale>  2 0.45769767E+03</rscale>
<asrwt>0</asrwt>
<pdfrwt beam="1">  1       21 0.53809423E-02 0.45769767E+03</pdfrwt>
<pdfrwt beam="2">  1       21 0.21048505E+00 0.45769767E+03</pdfrwt>
<totfact> 0.24068832E+04</totfact>
</mgrwt>
</event>
<event>
 7    0  0.4709932E-002  0.4648860E+03  0.7546771E-02  0.1023374E+00
         21   -1    0    0  502  501  0.00000000000E+00  0.00000000000E+00  0.55529637537E+03  0.55529637537E+03  0.00000000000E+00 0. -1.
         21   -1    0    0  501  502 -0.00000000000E+00 -0.00000000000E+00 -0.97298951864E+02  0.97298951864E+02  0.00000000000E+00 0. -1.
      99926    2    1    2    0    0  0.00000000000E+00  0.00000000000E+00  0.45799742351E+03  0.65259532724E+03  0.46488603032E+03 0.  0.
      99925    2    3    3    0    0  0.11801017006E+03 -0.26634580435E+02  0.26383986708E+03  0.39186468858E+03  0.26326917326E+03 0.  0.
         25    1    3    3    0    0 -0.11801017006E+03  0.26634580435E+02  0.19415755643E+03  0.26073063865E+03  0.12509000000E+03 0.  0.
         25    1    4    4    0    0  0.67037462074E+02  0.22628866037E+02  0.10756351451E+03  0.17950906566E+03  0.12509000000E+03 0.  0.
         25    1    4    4    0    0  0.50972707986E+02 -0.49263446472E+02  0.15627635256E+03  0.21235562292E+03  0.12509000000E+03 0.  0.
<mgrwt>
<rscale>  2 0.46488603E+03</rscale>
<asrwt>0</asrwt>
<pdfrwt beam="1">  1       21 0.81661230E-01 0.46488603E+03</pdfrwt>
<pdfrwt beam="2">  1       21 0.14308670E-01 0.46488603E+03</pdfrwt>
<totfact> 0.51422836E+04</totfact>
</mgrwt>
</event>
<event>
 7    0  0.4709932E-002  0.4537574E+03  0.7546771E-02  0.1026607E+00
         21   -1    0    0  502  501  0.00000000000E+00  0.00000000000E+00  0.12691838946E+03  0.12691838946E+03  0.00000000000E+00 0.  1.
         21   -1    0    0  501  502 -0.00000000000E+00 -0.00000000000E+00 -0.40556731031E+03  0.40556731031E+03  0.00000000000E+00 0.  1.
      99926    2    1    2    0    0 -0.35527136788E-14  0.00000000000E+00 -0.27864892086E+03  0.53248569977E+03  0.45375742348E+03 0.  0.
      99925    2    3    3    0    0 -0.14570708154E+02 -0.10732106877E+03 -0.13991891540E+03  0.31656062051E+03  0.26249420228E+03 0.  0.
         25    1    4    4    0    0  0.26096152258E+02 -0.72678646835E+02 -0.59836675852E+02  0.15871714068E+03  0.12509000000E+03 0.  0.
         25    1    3    3    0    0  0.14570708154E+02  0.10732106877E+03 -0.13873000546E+03  0.21592507926E+03  0.12509000000E+03 0.  0.
         25    1    4    4    0    0 -0.40666860412E+02 -0.34642421940E+02 -0.80082239548E+02  0.15784347983E+03  0.12509000000E+03 0.  0.
<mgrwt>
<rscale>  2 0.45375742E+03</rscale>
<asrwt>0</asrwt>
<pdfrwt beam="1">  1       21 0.18664469E-01 0.45375742E+03</pdfrwt>
<pdfrwt beam="2">  1       21 0.59642251E-01 0.45375742E+03</pdfrwt>
<totfact> 0.63662766E+04</totfact>
</mgrwt>
</event>
<event>
 6    0  0.4709932E-002  0.4541979E+03  0.7546771E-02  0.1026478E+00
         21   -1    0    0  502  501  0.00000000000E+00  0.00000000000E+00  0.16440836747E+03  0.16440836747E+03  0.00000000000E+00 0. -1.
         21   -1    0    0  501  502 -0.00000000000E+00 -0.00000000000E+00 -0.31369402763E+03  0.31369402763E+03  0.00000000000E+00 0. -1.
      99926    2    1    2    0    0 -0.17763568394E-14  0.00000000000E+00 -0.14928566017E+03  0.47810239510E+03  0.45419785542E+03 0.  0.
         25    1    3    3    0    0 -0.55164523993E+02  0.16154097707E+02 -0.76845361313E+02  0.15766038575E+03  0.12509000000E+03 0.  0.
         25    1    3    3    0    0  0.43625972003E+02  0.75504510541E+02 -0.61931678141E+02  0.16458188662E+03  0.12509000000E+03 0.  0.
         25    1    3    3    0    0  0.11538551990E+02 -0.91658608248E+02 -0.10508620715E+02  0.15586012273E+03  0.12509000000E+03 0.  0.
<mgrwt>
<rscale>  2 0.45419786E+03</rscale>
<asrwt>0</asrwt>
<pdfrwt beam="1">  1       21 0.24177701E-01 0.45419786E+03</pdfrwt>
<pdfrwt beam="2">  1       21 0.46131475E-01 0.45419786E+03</pdfrwt>
<totfact> 0.67265727E+04</totfact>
</mgrwt>
</event>
<event>
 7    0  0.4709932E-002  0.4527649E+03  0.7546771E-02  0.1026901E+00
         21   -1    0    0  502  501  0.00000000000E+00  0.00000000000E+00  0.31379548935E+02  0.31379548935E+02  0.00000000000E+00 0.  1.
         21   -1    0    0  501  502 -0.00000000000E+00 -0.00000000000E+00 -0.16331978215E+04  0.16331978215E+04  0.00000000000E+00 0.  1.
      99926    2    1    2    0    0  0.00000000000E+00  0.00000000000E+00 -0.16018182726E+04  0.16645773704E+04  0.45276488804E+03 0.  0.
      99925    2    3    3    0    0 -0.35283288851E+02 -0.75965391234E+02 -0.74129416268E+03  0.79098427126E+03  0.26291335192E+03 0.  0.
         25    1    4    4    0    0 -0.22652920824E+02 -0.74839738408E+02 -0.34477459494E+03  0.37500822748E+03  0.12509000000E+03 0.  0.
         25    1    3    3    0    0  0.35283288851E+02  0.75965391234E+02 -0.86052410988E+03  0.87359309917E+03  0.12509000000E+03 0.  0.
         25    1    4    4    0    0 -0.12630368027E+02 -0.11256528256E+01 -0.39651956775E+03  0.41597604378E+03  0.12509000000E+03 0.  0.
<mgrwt>
<rscale>  2 0.45276489E+03</rscale>
<asrwt>0</asrwt>
<pdfrwt beam="1">  1       21 0.46146387E-02 0.45276489E+03</pdfrwt>
<pdfrwt beam="2">  1       21 0.24017620E+00 0.45276489E+03</pdfrwt>
<totfact> 0.20360123E+04</totfact>
</mgrwt>
</event>
<event>
 7    0  0.4709932E-002  0.4584519E+03  0.7546771E-02  0.1025231E+00
         21   -1    0    0  502  501  0.00000000000E+00  0.00000000000E+00  0.44741697224E+03  0.44741697224E+03  0.00000000000E+00 0. -1.
         21   -1    0    0  501  502 -0.00000000000E+00 -0.00000000000E+00 -0.11743973878E+03  0.11743973878E+03  0.00000000000E+00 0. -1.
      99926    2    1    2    0    0  0.00000000000E+00 -0.14210854715E-13  0.32997723346E+03  0.56485671102E+03  0.45845188339E+03 0.  0.
      99925    2    3    3    0    0  0.53588641254E+02  0.98939103945E+02  0.17027213950E+03  0.33287844933E+03  0.26297294875E+03 0.  0.
         25    1    3    3    0    0 -0.53588641254E+02 -0.98939103945E+02  0.15970509396E+03  0.23197826169E+03  0.12509000000E+03 0.  0.
         25    1    4    4    0    0  0.59396688765E+02  0.75968995034E+02  0.82058871680E+02  0.17798994737E+03  0.12509000000E+03 0.  0.
         25    1    4    4    0    0 -0.58080475116E+01  0.22970108911E+02  0.88213267819E+02  0.15488850196E+03  0.12509000000E+03 0.  0.
<mgrwt>
<rscale>  2 0.45845188E+03</rscale>
<asrwt>0</asrwt>
<pdfrwt beam="1">  1       21 0.65796613E-01 0.45845188E+03</pdfrwt>
<pdfrwt beam="2">  1       21 0.17270550E-01 0.45845188E+03</pdfrwt>
<totfact> 0.59260799E+04</totfact>
</mgrwt>
</event>
<event>
 7    0  0.4709932E-002  0.4600460E+03  0.7546771E-02  0.1024768E+00
         21   -1    0    0  502  501  0.00000000000E+00  0.00000000000E+00  0.60368459043E+03  0.60368459043E+03  0.00000000000E+00 0.  1.
         21   -1    0    0  501  502 -0.00000000000E+00 -0.00000000000E+00 -0.87646053154E+02  0.87646053154E+02  0.00000000000E+00 0.  1.
      99926    2    1    2    0    0 -0.88817841970E-15  0.88817841970E-15  0.51603853728E+03  0.69133064359E+03  0.46004596162E+03 0.  0.
      99925    2    3    3    0    0  0.45795468373E+01 -0.44254900171E+01  0.14629325926E+03  0.30094668397E+03  0.26291943952E+03 0.  0.
         25    1    4    4    0    0  0.12498065926E+02 -0.31565400000E+02  0.43927051449E+02  0.13685638486E+03  0.12509000000E+03 0.  0.
         25    1    4    4    0    0 -0.79185190888E+01  0.27139909983E+02  0.10236620781E+03  0.16409029910E+03  0.12509000000E+03 0.  0.
         25    1    3    3    0    0 -0.45795468373E+01  0.44254900171E+01  0.36974527802E+03  0.39038395962E+03  0.12509000000E+03 0.  0.
<mgrwt>
<rscale>  2 0.46004596E+03</rscale>
<asrwt>0</asrwt>
<pdfrwt beam="1">  1       21 0.88777143E-01 0.46004596E+03</pdfrwt>
<pdfrwt beam="2">  1       21 0.12889126E-01 0.46004596E+03</pdfrwt>
<totfact> 0.51307694E+04</totfact>
</mgrwt>
</event>
<event>
 7    0  0.4709932E-002  0.4556057E+03  0.7546771E-02  0.1026063E+00
         21   -1    0    0  502  501  0.00000000000E+00  0.00000000000E+00  0.13318825905E+04  0.13318825905E+04  0.00000000000E+00 0. -1.
         21   -1    0    0  501  502 -0.00000000000E+00 -0.00000000000E+00 -0.38962999270E+02  0.38962999270E+02  0.00000000000E+00 0. -1.
      99926    2    1    2    0    0 -0.71054273576E-14  0.00000000000E+00  0.12929195912E+04  0.13708455898E+04  0.45560570848E+03 0.  0.
      99925    2    3    3    0    0  0.43289959606E+02 -0.10450407580E+03  0.84912495563E+03  0.89608637801E+03  0.26298761211E+03 0.  0.
         25    1    3    3    0    0 -0.43289959606E+02  0.10450407580E+03  0.44379463558E+03  0.47475921174E+03  0.12509000000E+03 0.  0.
         25    1    4    4    0    0  0.14186602992E+02 -0.10935843420E+02  0.33902502945E+03  0.36180979958E+03  0.12509000000E+03 0.  0.
         25    1    4    4    0    0  0.29103356614E+02 -0.93568232375E+02  0.51009992618E+03  0.53427657844E+03  0.12509000000E+03 0.  0.
<mgrwt>
<rscale>  2 0.45560571E+03</rscale>
<asrwt>0</asrwt>
<pdfrwt beam="1">  1       21 0.19586506E+00 0.45560571E+03</pdfrwt>
<pdfrwt beam="2">  1       21 0.57298537E-02 0.45560571E+03</pdfrwt>
<totfact> 0.26992099E+04</totfact>
</mgrwt>
</event>
<event>
 7    0  0.4709932E-002  0.4521289E+03  0.7546771E-02  0.1027089E+00
         21   -1    0    0  502  501  0.00000000000E+00  0.00000000000E+00  0.12250278778E+03  0.12250278778E+03  0.00000000000E+00 0.  1.
         21   -1    0    0  501  502 -0.00000000000E+00 -0.00000000000E+00 -0.41717521943E+03  0.41717521943E+03  0.00000000000E+00 0.  1.
      99926    2    1    2    0    0  0.14210854715E-13  0.00000000000E+00 -0.29467243165E+03  0.53967800720E+03  0.45212886380E+03 0.  0.
      99925    2    3    3    0    0  0.10300303491E+03 -0.33272243425E+02 -0.16013887258E+03  0.32645639949E+03  0.26308298096E+03 0.  0.
         25    1    3    3    0    0 -0.10300303491E+03  0.33272243425E+02 -0.13453355907E+03  0.21322160772E+03  0.12509000000E+03 0.  0.
         25    1    4    4    0    0  0.82981853788E+02 -0.15050401729E+02 -0.54170923546E+02  0.16029503956E+03  0.12509000000E+03 0.  0.
         25    1    4    4    0    0  0.20021181118E+02 -0.18221841696E+02 -0.10596794904E+03  0.16616135992E+03  0.12509000000E+03 0.  0.
<mgrwt>
<rscale>  2 0.45212886E+03</rscale>
<asrwt>0</asrwt>
<pdfrwt beam="1">  1       21 0.18015116E-01 0.45212886E+03</pdfrwt>
<pdfrwt beam="2">  1       21 0.61349295E-01 0.45212886E+03</pdfrwt>
<totfact> 0.63995553E+04</totfact>
</mgrwt>
</event>
<event>
 7    0  0.4709932E-002  0.4516031E+03  0.7546771E-02  0.1027245E+00
         21   -1    0    0  502  501  0.00000000000E+00  0.00000000000E+00  0.64942365035E+03  0.64942365035E+03  0.00000000000E+00 0.  1.
         21   -1    0    0  501  502 -0.00000000000E+00 -0.00000000000E+00 -0.78510143034E+02  0.78510143034E+02  0.00000000000E+00 0.  1.
      99926    2    1    2    0    0  0.00000000000E+00  0.35527136788E-14  0.57091350731E+03  0.72793379338E+03  0.45160311637E+03 0.  0.
      99925    2    3    3    0    0 -0.63263822359E+02 -0.29220342961E+02  0.22323204046E+03  0.35192042905E+03  0.26298156748E+03 0.  0.
         25    1    3    3    0    0  0.63263822359E+02  0.29220342961E+02  0.34768146685E+03  0.37601336433E+03  0.12509000000E+03 0.  0.
         25    1    4    4    0    0 -0.38303014119E+02 -0.27483277773E+02  0.16312219920E+03  0.21090000337E+03  0.12509000000E+03 0.  0.
         25    1    4    4    0    0 -0.24960808240E+02 -0.17370651882E+01  0.60109841254E+02  0.14102042568E+03  0.12509000000E+03 0.  0.
<mgrwt>
<rscale>  2 0.45160312E+03</rscale>
<asrwt>0</asrwt>
<pdfrwt beam="1">  1       21 0.95503475E-01 0.45160312E+03</pdfrwt>
<pdfrwt beam="2">  1       21 0.11545610E-01 0.45160312E+03</pdfrwt>
<totfact> 0.52809078E+04</totfact>
</mgrwt>
</event>
<event>
 7    0  0.4709932E-002  0.4555889E+03  0.7546771E-02  0.1026068E+00
         21   -1    0    0  502  501  0.00000000000E+00  0.00000000000E+00  0.16138428564E+03  0.16138428564E+03  0.00000000000E+00 0.  1.
         21   -1    0    0  501  502 -0.00000000000E+00 -0.00000000000E+00 -0.32153263560E+03  0.32153263560E+03  0.00000000000E+00 0.  1.
      99926    2    1    2    0    0  0.00000000000E+00  0.00000000000E+00 -0.16014834996E+03  0.48291692124E+03  0.45558891430E+03 0.  0.
      99925    2    3    3    0    0  0.51209753587E+02 -0.71688272154E+02 -0.24431338422E+02  0.27839733160E+03  0.26295729068E+03 0.  0.
         25    1    4    4    0    0  0.65250758721E+02 -0.48230195668E+02 -0.81592897625E+01  0.14932479833E+03  0.12509000000E+03 0.  0.
         25    1    3    3    0    0 -0.51209753587E+02  0.71688272154E+02 -0.13571701153E+03  0.20451958964E+03  0.12509000000E+03 0.  0.
         25    1    4    4    0    0 -0.14041005134E+02 -0.23458076486E+02 -0.16272048659E+02  0.12907253327E+03  0.12509000000E+03 0.  0.
<mgrwt>
<rscale>  2 0.45558891E+03</rscale>
<asrwt>0</asrwt>
<pdfrwt beam="1">  1       21 0.23732984E-01 0.45558891E+03</pdfrwt>
<pdfrwt beam="2">  1       21 0.47284210E-01 0.45558891E+03</pdfrwt>
<totfact> 0.66178465E+04</totfact>
</mgrwt>
</event>
<event>
 7    0  0.4709932E-002  0.4554489E+03  0.7546771E-02  0.1026109E+00
         21   -1    0    0  502  501  0.00000000000E+00  0.00000000000E+00  0.31799977520E+03  0.31799977520E+03  0.00000000000E+00 0. -1.
         21   -1    0    0  501  502 -0.00000000000E+00 -0.00000000000E+00 -0.16307693128E+03  0.16307693128E+03  0.00000000000E+00 0. -1.
      99926    2    1    2    0    0  0.00000000000E+00  0.00000000000E+00  0.15492284391E+03  0.48107670648E+03  0.45544891037E+03 0.  0.
      99925    2    3    3    0    0  0.10072578728E+03 -0.29553740088E+02  0.51259053777E+02  0.28765282672E+03  0.26286412906E+03 0.  0.
         25    1    4    4    0    0  0.80530405870E+02 -0.24716800990E+00  0.25999938255E+01  0.14879339847E+03  0.12509000000E+03 0.  0.
         25    1    3    3    0    0 -0.10072578728E+03  0.29553740088E+02  0.10366379014E+03  0.19342387976E+03  0.12509000000E+03 0.  0.
         25    1    4    4    0    0  0.20195381413E+02 -0.29306572079E+02  0.48659059951E+02  0.13885942825E+03  0.12509000000E+03 0.  0.
<mgrwt>
<rscale>  2 0.45544891E+03</rscale>
<asrwt>0</asrwt>
<pdfrwt beam="1">  1       21 0.46764673E-01 0.45544891E+03</pdfrwt>
<pdfrwt beam="2">  1       21 0.23981902E-01 0.45544891E+03</pdfrwt>
<totfact> 0.66384942E+04</totfact>
</mgrwt>
</event>
<event>
 7    0  0.4709932E-002  0.4534822E+03  0.7546771E-02  0.1026689E+00
         21   -1    0    0  502  501  0.00000000000E+00  0.00000000000E+00  0.80021038519E+02  0.80021038519E+02  0.00000000000E+00 0. -1.
         21   -1    0    0  501  502 -0.00000000000E+00 -0.00000000000E+00 -0.64247505209E+03  0.64247505209E+03  0.00000000000E+00 0. -1.
      99926    2    1    2    0    0  0.00000000000E+00  0.00000000000E+00 -0.56245401358E+03  0.72249609061E+03  0.45348217558E+03 0.  0.
      99925    2    3    3    0    0  0.40346638877E+02  0.95075321814E+02 -0.42259121858E+03  0.50830860823E+03  0.26292039687E+03 0.  0.
         25    1    4    4    0    0  0.43336320879E+02  0.50719568024E+02 -0.27771270815E+03  0.31180501544E+03  0.12509000000E+03 0.  0.
         25    1    3    3    0    0 -0.40346638877E+02 -0.95075321814E+02 -0.13986279499E+03  0.21418748238E+03  0.12509000000E+03 0.  0.
         25    1    4    4    0    0 -0.29896820018E+01  0.44355753790E+02 -0.14487851043E+03  0.19650359279E+03  0.12509000000E+03 0.  0.
<mgrwt>
<rscale>  2 0.45348218E+03</rscale>
<asrwt>0</asrwt>
<pdfrwt beam="1">  1       21 0.11767800E-01 0.45348218E+03</pdfrwt>
<pdfrwt beam="2">  1       21 0.94481627E-01 0.45348218E+03</pdfrwt>
<totfact> 0.52320364E+04</totfact>
</mgrwt>
</event>
<event>
 7    0  0.4709932E-002  0.4470966E+03  0.7546771E-02  0.1028591E+00
         21   -1    0    0  502  501  0.00000000000E+00  0.00000000000E+00  0.13524918368E+03  0.13524918368E+03  0.00000000000E+00 0. -1.
         21   -1    0    0  501  502 -0.00000000000E+00 -0.00000000000E+00 -0.36949455656E+03  0.36949455656E+03  0.00000000000E+00 0. -1.
      99926    2    1    2    0    0  0.00000000000E+00  0.00000000000E+00 -0.23424537288E+03  0.50474374024E+03  0.44709657637E+03 0.  0.
      99925    2    3    3    0    0  0.28331354066E+02  0.98597434915E+02 -0.11978374200E+03  0.30656934019E+03  0.26289255543E+03 0.  0.
         25    1    3    3    0    0 -0.28331354066E+02 -0.98597434915E+02 -0.11446163087E+03  0.19817440006E+03  0.12509000000E+03 0.  0.
         25    1    4    4    0    0  0.41338879510E+02  0.33639725687E+02 -0.30933953148E+02  0.13944515646E+03  0.12509000000E+03 0.  0.
         25    1    4    4    0    0 -0.13007525444E+02  0.64957709227E+02 -0.88849788855E+02  0.16712418373E+03  0.12509000000E+03 0.  0.
<mgrwt>
<rscale>  2 0.44709658E+03</rscale>
<asrwt>0</asrwt>
<pdfrwt beam="1">  1       21 0.19889586E-01 0.44709658E+03</pdfrwt>
<pdfrwt beam="2">  1       21 0.54337434E-01 0.44709658E+03</pdfrwt>
<totfact> 0.69177015E+04</totfact>
</mgrwt>
</event>
<event>
 7    0  0.4709932E-002  0.4463953E+03  0.7546771E-02  0.1028802E+00
         21   -1    0    0  502  501  0.00000000000E+00  0.00000000000E+00  0.42213691946E+03  0.42213691946E+03  0.00000000000E+00 0.  1.
         21   -1    0    0  501  502 -0.00000000000E+00 -0.00000000000E+00 -0.11801192973E+03  0.11801192973E+03  0.00000000000E+00 0.  1.
      99926    2    1    2    0    0 -0.71054273576E-14  0.00000000000E+00  0.30412498973E+03  0.54014884919E+03  0.44639530676E+03 0.  0.
      99925    2    3    3    0    0  0.34606301094E+02 -0.97617425102E+02  0.21382795069E+03  0.35433221614E+03  0.26287291442E+03 0.  0.
         25    1    4    4    0    0 -0.13450203490E+02 -0.74763293792E+02  0.10335969462E+03  0.17916805699E+03  0.12509000000E+03 0.  0.
         25    1    3    3    0    0 -0.34606301094E+02  0.97617425102E+02  0.90297039039E+02  0.18581663305E+03  0.12509000000E+03 0.  0.
         25    1    4    4    0    0  0.48056504584E+02 -0.22854131310E+02  0.11046825607E+03  0.17516415915E+03  0.12509000000E+03 0.  0.
<mgrwt>
<rscale>  2 0.44639531E+03</rscale>
<asrwt>0</asrwt>
<pdfrwt beam="1">  1       21 0.62078958E-01 0.44639531E+03</pdfrwt>
<pdfrwt beam="2">  1       21 0.17354696E-01 0.44639531E+03</pdfrwt>
<totfact> 0.66967213E+04</totfact>
</mgrwt>
</event>
<event>
 7    0  0.4709932E-002  0.4378378E+03  0.7546771E-02  0.1031412E+00
         21   -1    0    0  502  501  0.00000000000E+00  0.00000000000E+00  0.31774587172E+03  0.31774587172E+03  0.00000000000E+00 0.  1.
         21   -1    0    0  501  502 -0.00000000000E+00 -0.00000000000E+00 -0.15082959841E+03  0.15082959841E+03  0.00000000000E+00 0.  1.
      99926    2    1    2    0    0  0.00000000000E+00 -0.35527136788E-14  0.16691627331E+03  0.46857547013E+03  0.43783778835E+03 0.  0.
      99925    2    3    3    0    0  0.16919866926E+02 -0.25232758400E+02  0.20429710537E+03  0.33453141506E+03  0.26315582153E+03 0.  0.
         25    1    4    4    0    0  0.45569907373E+02 -0.29012471008E+02  0.11262186255E+03  0.17677537147E+03  0.12509000000E+03 0.  0.
         25    1    3    3    0    0 -0.16919866926E+02  0.25232758400E+02 -0.37380832060E+02  0.13404405507E+03  0.12509000000E+03 0.  0.
         25    1    4    4    0    0 -0.28650040447E+02  0.37797126080E+01  0.91675242818E+02  0.15775604359E+03  0.12509000000E+03 0.  0.
<mgrwt>
<rscale>  2 0.43783779E+03</rscale>
<asrwt>0</asrwt>
<pdfrwt beam="1">  1       21 0.46727334E-01 0.43783779E+03</pdfrwt>
<pdfrwt beam="2">  1       21 0.22180823E-01 0.43783779E+03</pdfrwt>
<totfact> 0.77582995E+04</totfact>
</mgrwt>
</event>
<event>
 7    0  0.4709932E-002  0.4555730E+03  0.7546771E-02  0.1026073E+00
         21   -1    0    0  502  501  0.00000000000E+00  0.00000000000E+00  0.98534341661E+02  0.98534341661E+02  0.00000000000E+00 0. -1.
         21   -1    0    0  501  502 -0.00000000000E+00 -0.00000000000E+00 -0.52658481291E+03  0.52658481291E+03  0.00000000000E+00 0. -1.
      99926    2    1    2    0    0 -0.71054273576E-14  0.44408920985E-14 -0.42805047125E+03  0.62511915457E+03  0.45557299248E+03 0.  0.
      99925    2    3    3    0    0 -0.63322329414E+02  0.41149407090E+01 -0.13976420022E+03  0.30452106926E+03  0.26300646346E+03 0.  0.
         25    1    4    4    0    0 -0.48649479054E+02  0.39106148928E+02 -0.74741982068E+02  0.15852424004E+03  0.12509000000E+03 0.  0.
         25    1    3    3    0    0  0.63322329414E+02 -0.41149407090E+01 -0.28828627103E+03  0.32059808531E+03  0.12509000000E+03 0.  0.
         25    1    4    4    0    0 -0.14672850360E+02 -0.34991208219E+02 -0.65022218152E+02  0.14599682922E+03  0.12509000000E+03 0.  0.
<mgrwt>
<rscale>  2 0.45557299E+03</rscale>
<asrwt>0</asrwt>
<pdfrwt beam="1">  1       21 0.14490345E-01 0.45557299E+03</pdfrwt>
<pdfrwt beam="2">  1       21 0.77438942E-01 0.45557299E+03</pdfrwt>
<totfact> 0.56900305E+04</totfact>
</mgrwt>
</event>
<event>
 7    0  0.4709932E-002  0.4557717E+03  0.7546771E-02  0.1026015E+00
         21   -1    0    0  502  501  0.00000000000E+00  0.00000000000E+00  0.30451697187E+04  0.30451697187E+04  0.00000000000E+00 0. -1.
         21   -1    0    0  501  502 -0.00000000000E+00 -0.00000000000E+00 -0.17053882668E+02  0.17053882668E+02  0.00000000000E+00 0. -1.
      99926    2    1    2    0    0  0.14210854715E-13  0.00000000000E+00  0.30281158360E+04  0.30622236014E+04  0.45577172834E+03 0.  0.
      99925    2    3    3    0    0  0.83151021934E+02  0.26471057283E+02  0.23958214434E+04  0.24117941153E+04  0.26301265466E+03 0.  0.
         25    1    3    3    0    0 -0.83151021934E+02 -0.26471057283E+02  0.63229439264E+03  0.65042948610E+03  0.12509000000E+03 0.  0.
         25    1    4    4    0    0  0.57704699982E+02  0.14730667890E+02  0.91431209144E+03  0.92474911929E+03  0.12509000000E+03 0.  0.
         25    1    4    4    0    0  0.25446321952E+02  0.11740389393E+02  0.14815093520E+04  0.14870449960E+04  0.12509000000E+03 0.  0.
<mgrwt>
<rscale>  2 0.45577173E+03</rscale>
<asrwt>0</asrwt>
<pdfrwt beam="1">  1       21 0.44781870E+00 0.45577173E+03</pdfrwt>
<pdfrwt beam="2">  1       21 0.25079260E-02 0.45577173E+03</pdfrwt>
<totfact> 0.28983354E+03</totfact>
</mgrwt>
</event>
<event>
 7    0  0.4709932E-002  0.4441682E+03  0.7546771E-02  0.1029476E+00
         21   -1    0    0  502  501  0.00000000000E+00  0.00000000000E+00  0.54493528503E+02  0.54493528503E+02  0.00000000000E+00 0.  1.
         21   -1    0    0  501  502 -0.00000000000E+00 -0.00000000000E+00 -0.90508623240E+03  0.90508623240E+03  0.00000000000E+00 0.  1.
      99926    2    1    2    0    0 -0.35527136788E-14  0.00000000000E+00 -0.85059270389E+03  0.95957976090E+03  0.44416817717E+03 0.  0.
      99925    2    3    3    0    0  0.18229120856E+02 -0.27243312250E+02 -0.33045479685E+03  0.42360826040E+03  0.26300016465E+03 0.  0.
         25    1    3    3    0    0 -0.18229120856E+02  0.27243312250E+02 -0.52013790704E+03  0.53597150050E+03  0.12509000000E+03 0.  0.
         25    1    4    4    0    0  0.87264765722E+01 -0.14605785115E+02 -0.23011886659E+03  0.26247224846E+03  0.12509000000E+03 0.  0.
         25    1    4    4    0    0  0.95026442833E+01 -0.12637527135E+02 -0.10033593026E+03  0.16113601193E+03  0.12509000000E+03 0.  0.
<mgrwt>
<rscale>  2 0.44416818E+03</rscale>
<asrwt>0</asrwt>
<pdfrwt beam="1">  1       21 0.80137554E-02 0.44416818E+03</pdfrwt>
<pdfrwt beam="2">  1       21 0.13310090E+00 0.44416818E+03</pdfrwt>
<totfact> 0.44397904E+04</totfact>
</mgrwt>
</event>
<event>
 7    0  0.4709932E-002  0.4503836E+03  0.7546771E-02  0.1027608E+00
         21   -1    0    0  502  501  0.00000000000E+00  0.00000000000E+00  0.56044384131E+03  0.56044384131E+03  0.00000000000E+00 0.  1.
         21   -1    0    0  501  502 -0.00000000000E+00 -0.00000000000E+00 -0.90484273209E+02  0.90484273209E+02  0.00000000000E+00 0.  1.
      99926    2    1    2    0    0  0.00000000000E+00  0.00000000000E+00  0.46995956810E+03  0.65092811452E+03  0.45038363050E+03 0.  0.
      99925    2    3    3    0    0 -0.10617354125E+03 -0.14713857609E+02  0.27262597300E+03  0.39387291749E+03  0.26329002166E+03 0.  0.
         25    1    4    4    0    0 -0.78404629176E+02 -0.31656181463E+02  0.17955787651E+03  0.23460165988E+03  0.12509000000E+03 0.  0.
         25    1    3    3    0    0  0.10617354125E+03  0.14713857609E+02  0.19733359510E+03  0.25705519704E+03  0.12509000000E+03 0.  0.
         25    1    4    4    0    0 -0.27768912073E+02  0.16942323854E+02  0.93068096491E+02  0.15927125761E+03  0.12509000000E+03 0.  0.
<mgrwt>
<rscale>  2 0.45038363E+03</rscale>
<asrwt>0</asrwt>
<pdfrwt beam="1">  1       21 0.82418210E-01 0.45038363E+03</pdfrwt>
<pdfrwt beam="2">  1       21 0.13306511E-01 0.45038363E+03</pdfrwt>
<totfact> 0.57721483E+04</totfact>
</mgrwt>
</event>
<event>
 7    0  0.4709932E-002  0.4363778E+03  0.7546771E-02  0.1031864E+00
         21   -1    0    0  502  501  0.00000000000E+00  0.00000000000E+00  0.10116782411E+03  0.10116782411E+03  0.00000000000E+00 0.  1.
         21   -1    0    0  501  502 -0.00000000000E+00 -0.00000000000E+00 -0.47056845247E+03  0.47056845247E+03  0.00000000000E+00 0.  1.
      99926    2    1    2    0    0 -0.71054273576E-14  0.00000000000E+00 -0.36940062835E+03  0.57173627658E+03  0.43637775577E+03 0.  0.
      99925    2    3    3    0    0  0.49451953187E+02  0.70785810502E+02 -0.18567208706E+03  0.33328332183E+03  0.26295916423E+03 0.  0.
         25    1    4    4    0    0  0.52074270109E+02  0.56978781788E+02 -0.12763891301E+03  0.19467283169E+03  0.12509000000E+03 0.  0.
         25    1    4    4    0    0 -0.26223169219E+01  0.13807028713E+02 -0.58033174044E+02  0.13861049014E+03  0.12509000000E+03 0.  0.
         25    1    3    3    0    0 -0.49451953187E+02 -0.70785810502E+02 -0.18372854130E+03  0.23845295475E+03  0.12509000000E+03 0.  0.
<mgrwt>
<rscale>  2 0.43637776E+03</rscale>
<asrwt>0</asrwt>
<pdfrwt beam="1">  1       21 0.14877621E-01 0.43637776E+03</pdfrwt>
<pdfrwt beam="2">  1       21 0.69201243E-01 0.43637776E+03</pdfrwt>
<totfact> 0.70237553E+04</totfact>
</mgrwt>
</event>
<event>
 7    0  0.4709932E-002  0.4505643E+03  0.7546771E-02  0.1027554E+00
         21   -1    0    0  502  501  0.00000000000E+00  0.00000000000E+00  0.58742187346E+03  0.58742187346E+03  0.00000000000E+00 0.  1.
         21   -1    0    0  501  502 -0.00000000000E+00 -0.00000000000E+00 -0.86397933378E+02  0.86397933378E+02  0.00000000000E+00 0.  1.
      99926    2    1    2    0    0  0.00000000000E+00  0.00000000000E+00  0.50102394009E+03  0.67381980684E+03  0.45056425019E+03 0.  0.
      99925    2    3    3    0    0 -0.73713299559E+02  0.38696916014E+02  0.21145465434E+03  0.34758525749E+03  0.26300444586E+03 0.  0.
         25    1    4    4    0    0 -0.25926589115E+02  0.17874589756E+02  0.53990166495E+02  0.13983610106E+03  0.12509000000E+03 0.  0.
         25    1    3    3    0    0  0.73713299559E+02 -0.38696916014E+02  0.28956928575E+03  0.32623454935E+03  0.12509000000E+03 0.  0.
         25    1    4    4    0    0 -0.47786710444E+02  0.20822326258E+02  0.15746448784E+03  0.20774915643E+03  0.12509000000E+03 0.  0.
<mgrwt>
<rscale>  2 0.45056425E+03</rscale>
<asrwt>0</asrwt>
<pdfrwt beam="1">  1       21 0.86385567E-01 0.45056425E+03</pdfrwt>
<pdfrwt beam="2">  1       21 0.12705579E-01 0.45056425E+03</pdfrwt>
<totfact> 0.56289073E+04</totfact>
</mgrwt>
</event>
<event>
 7    0  0.4709932E-002  0.4548361E+03  0.7546771E-02  0.1026290E+00
         21   -1    0    0  502  501  0.00000000000E+00  0.00000000000E+00  0.74079300865E+02  0.74079300865E+02  0.00000000000E+00 0. -1.
         21   -1    0    0  501  502 -0.00000000000E+00 -0.00000000000E+00 -0.69815677241E+03  0.69815677241E+03  0.00000000000E+00 0. -1.
      99926    2    1    2    0    0  0.00000000000E+00 -0.14210854715E-13 -0.62407747154E+03  0.77223607327E+03  0.45483608298E+03 0.  0.
      99925    2    3    3    0    0  0.15861067009E+02  0.11130739396E+03 -0.41262313984E+03  0.50204844977E+03  0.26297125507E+03 0.  0.
         25    1    4    4    0    0  0.11883053409E+01  0.18192996527E+02 -0.22053301407E+03  0.25419424775E+03  0.12509000000E+03 0.  0.
         25    1    4    4    0    0  0.14672761668E+02  0.93114397433E+02 -0.19209012577E+03  0.24785420203E+03  0.12509000000E+03 0.  0.
         25    1    3    3    0    0 -0.15861067009E+02 -0.11130739396E+03 -0.21145433170E+03  0.27018762350E+03  0.12509000000E+03 0.  0.
<mgrwt>
<rscale>  2 0.45483608E+03</rscale>
<asrwt>0</asrwt>
<pdfrwt beam="1">  1       21 0.10894014E-01 0.45483608E+03</pdfrwt>
<pdfrwt beam="2">  1       21 0.10267012E+00 0.45483608E+03</pdfrwt>
<totfact> 0.49200295E+04</totfact>
</mgrwt>
</event>
<event>
 7    0  0.4709932E-002  0.5047432E+03  0.7546771E-02  0.1012548E+00
         21   -1    0    0  502  501  0.00000000000E+00  0.00000000000E+00  0.94854402802E+02  0.94854402802E+02  0.00000000000E+00 0.  1.
         21   -1    0    0  501  502 -0.00000000000E+00 -0.00000000000E+00 -0.67146522772E+03  0.67146522772E+03  0.00000000000E+00 0.  1.
      99926    2    1    2    0    0  0.00000000000E+00  0.00000000000E+00 -0.57661082491E+03  0.76631963052E+03  0.50474323444E+03 0.  0.
      99925    2    3    3    0    0 -0.86624240993E+02  0.10520217684E+03 -0.46156621257E+03  0.54848017571E+03  0.26308910548E+03 0.  0.
         25    1    4    4    0    0 -0.48574824465E+02  0.49358054350E+02 -0.30585735646E+03  0.33762695642E+03  0.12509000000E+03 0.  0.
         25    1    3    3    0    0  0.86624240993E+02 -0.10520217684E+03 -0.11504461234E+03  0.21783945481E+03  0.12509000000E+03 0.  0.
         25    1    4    4    0    0 -0.38049416528E+02  0.55844122494E+02 -0.15570885611E+03  0.21085321929E+03  0.12509000000E+03 0.  0.
<mgrwt>
<rscale>  2 0.50474323E+03</rscale>
<asrwt>0</asrwt>
<pdfrwt beam="1">  1       21 0.13949177E-01 0.50474323E+03</pdfrwt>
<pdfrwt beam="2">  1       21 0.98744886E-01 0.50474323E+03</pdfrwt>
<totfact> 0.34050505E+04</totfact>
</mgrwt>
</event>
<event>
 7    0  0.4709932E-002  0.4465453E+03  0.7546771E-02  0.1028757E+00
         21   -1    0    0  502  501  0.00000000000E+00  0.00000000000E+00  0.25444018864E+03  0.25444018864E+03  0.00000000000E+00 0. -1.
         21   -1    0    0  501  502 -0.00000000000E+00 -0.00000000000E+00 -0.19592297894E+03  0.19592297894E+03  0.00000000000E+00 0. -1.
      99926    2    1    2    0    0  0.00000000000E+00  0.71054273576E-14  0.58517209697E+02  0.45036316758E+03  0.44654531560E+03 0.  0.
      99925    2    3    3    0    0  0.93336860229E+02  0.25304389165E+02  0.78257505967E+02  0.29102306282E+03  0.26309333755E+03 0.  0.
         25    1    3    3    0    0 -0.93336860229E+02 -0.25304389165E+02 -0.19740296270E+02  0.15934010476E+03  0.12509000000E+03 0.  0.
         25    1    4    4    0    0  0.47781100048E+02  0.47831679745E+02  0.18570382758E+02  0.14339898997E+03  0.12509000000E+03 0.  0.
         25    1    4    4    0    0  0.45555760181E+02 -0.22527290579E+02  0.59687123210E+02  0.14762407285E+03  0.12509000000E+03 0.  0.
<mgrwt>
<rscale>  2 0.44654532E+03</rscale>
<asrwt>0</asrwt>
<pdfrwt beam="1">  1       21 0.37417675E-01 0.44654532E+03</pdfrwt>
<pdfrwt beam="2">  1       21 0.28812203E-01 0.44654532E+03</pdfrwt>
<totfact> 0.73736273E+04</totfact>
</mgrwt>
</event>
<event>
 7    0  0.4709932E-002  0.4240206E+03  0.7546771E-02  0.1035766E+00
         21   -1    0    0  502  501  0.00000000000E+00  0.00000000000E+00  0.56279098385E+03  0.56279098385E+03  0.00000000000E+00 0.  1.
         21   -1    0    0  501  502 -0.00000000000E+00 -0.00000000000E+00 -0.79866900532E+02  0.79866900532E+02  0.00000000000E+00 0.  1.
      99926    2    1    2    0    0  0.00000000000E+00  0.00000000000E+00  0.48292408332E+03  0.64265788439E+03  0.42402061991E+03 0.  0.
      99925    2    3    3    0    0 -0.75071448370E+02  0.28934433751E+02  0.30017611468E+03  0.40703689220E+03  0.26286956455E+03 0.  0.
         25    1    4    4    0    0 -0.53149948518E+02 -0.43283677657E+01  0.10493250994E+03  0.17176143787E+03  0.12509000000E+03 0.  0.
         25    1    3    3    0    0  0.75071448370E+02 -0.28934433751E+02  0.18274796864E+03  0.23562099219E+03  0.12509000000E+03 0.  0.
         25    1    4    4    0    0 -0.21921499852E+02  0.33262801517E+02  0.19524360473E+03  0.23527545433E+03  0.12509000000E+03 0.  0.
<mgrwt>
<rscale>  2 0.42402062E+03</rscale>
<asrwt>0</asrwt>
<pdfrwt beam="1">  1       21 0.82763378E-01 0.42402062E+03</pdfrwt>
<pdfrwt beam="2">  1       21 0.11745133E-01 0.42402062E+03</pdfrwt>
<totfact> 0.72216941E+04</totfact>
</mgrwt>
</event>
<event>
 7    0  0.4709932E-002  0.4571378E+03  0.7546771E-02  0.1025615E+00
         21   -1    0    0  502  501  0.00000000000E+00  0.00000000000E+00  0.14106365577E+04  0.14106365577E+04  0.00000000000E+00 0. -1.
         21   -1    0    0  501  502 -0.00000000000E+00 -0.00000000000E+00 -0.37035579986E+02  0.37035579986E+02  0.00000000000E+00 0. -1.
      99926    2    1    2    0    0  0.00000000000E+00 -0.35527136788E-14  0.13736009777E+04  0.14476721377E+04  0.45713780445E+03 0.  0.
      99925    2    3    3    0    0 -0.10380005778E+03  0.19437776287E+02  0.71712097687E+03  0.77108823399E+03  0.26298724300E+03 0.  0.
         25    1    4    4    0    0 -0.68527039747E+02 -0.24444206434E+02  0.32828254950E+03  0.35876233751E+03  0.12509000000E+03 0.  0.
         25    1    3    3    0    0  0.10380005778E+03 -0.19437776287E+02  0.65648000087E+03  0.67658390373E+03  0.12509000000E+03 0.  0.
         25    1    4    4    0    0 -0.35273018031E+02  0.43881982722E+02  0.38883842737E+03  0.41232589648E+03  0.12509000000E+03 0.  0.
<mgrwt>
<rscale>  2 0.45713780E+03</rscale>
<asrwt>0</asrwt>
<pdfrwt beam="1">  1       21 0.20744652E+00 0.45713780E+03</pdfrwt>
<pdfrwt beam="2">  1       21 0.54464098E-02 0.45713780E+03</pdfrwt>
<totfact> 0.24676424E+04</totfact>
</mgrwt>
</event>
<event>
 7    0  0.4709932E-002  0.4586059E+03  0.7546771E-02  0.1025186E+00
         21   -1    0    0  502  501  0.00000000000E+00  0.00000000000E+00  0.54189067011E+02  0.54189067011E+02  0.00000000000E+00 0. -1.
         21   -1    0    0  501  502 -0.00000000000E+00 -0.00000000000E+00 -0.97030347019E+03  0.97030347019E+03  0.00000000000E+00 0. -1.
      99926    2    1    2    0    0  0.71054273576E-14 -0.71054273576E-14 -0.91611440318E+03  0.10244925372E+04  0.45860588643E+03 0.  0.
      99925    2    3    3    0    0 -0.56998877189E+02  0.52458160244E+02 -0.38034553323E+03  0.46888789297E+03  0.26304448475E+03 0.  0.
         25    1    4    4    0    0 -0.77423040940E+01  0.60397916043E+02 -0.20618276384E+03  0.24873015848E+03  0.12509000000E+03 0.  0.
         25    1    3    3    0    0  0.56998877189E+02 -0.52458160244E+02 -0.53576886995E+03  0.55560464423E+03  0.12509000000E+03 0.  0.
         25    1    4    4    0    0 -0.49256573095E+02 -0.79397557985E+01 -0.17416276939E+03  0.22015773449E+03  0.12509000000E+03 0.  0.
<mgrwt>
<rscale>  2 0.45860589E+03</rscale>
<asrwt>0</asrwt>
<pdfrwt beam="1">  1       21 0.79689811E-02 0.45860589E+03</pdfrwt>
<pdfrwt beam="2">  1       21 0.14269167E+00 0.45860589E+03</pdfrwt>
<totfact> 0.37169965E+04</totfact>
</mgrwt>
</event>
<event>
 7    0  0.4709932E-002  0.4513022E+03  0.7546771E-02  0.1027334E+00
         21   -1    0    0  502  501  0.00000000000E+00  0.00000000000E+00  0.53342518940E+02  0.53342518940E+02  0.00000000000E+00 0. -1.
         21   -1    0    0  501  502 -0.00000000000E+00 -0.00000000000E+00 -0.95455585015E+03  0.95455585015E+03  0.00000000000E+00 0. -1.
      99926    2    1    2    0    0  0.27755575616E-14 -0.88817841970E-15 -0.90121333121E+03  0.10078983691E+04  0.45130217600E+03 0.  0.
      99925    2    3    3    0    0  0.79540209596E+00  0.66126547171E+01 -0.81343413373E+03  0.85493740846E+03  0.26305612063E+03 0.  0.
         25    1    3    3    0    0 -0.79540209596E+00 -0.66126547171E+01 -0.87779197484E+02  0.15296096063E+03  0.12509000000E+03 0.  0.
         25    1    4    4    0    0  0.29496487004E+02 -0.13562960666E+02 -0.47983235078E+03  0.49693117189E+03  0.12509000000E+03 0.  0.
         25    1    4    4    0    0 -0.28701084908E+02  0.20175615383E+02 -0.33360178295E+03  0.35800623657E+03  0.12509000000E+03 0.  0.
<mgrwt>
<rscale>  2 0.45130218E+03</rscale>
<asrwt>0</asrwt>
<pdfrwt beam="1">  1       21 0.78444873E-02 0.45130218E+03</pdfrwt>
<pdfrwt beam="2">  1       21 0.14037587E+00 0.45130218E+03</pdfrwt>
<totfact> 0.40003696E+04</totfact>
</mgrwt>
</event>
<event>
 7    0  0.4709932E-002  0.4593223E+03  0.7546771E-02  0.1024978E+00
         21   -1    0    0  502  501  0.00000000000E+00  0.00000000000E+00  0.20168241125E+03  0.20168241125E+03  0.00000000000E+00 0.  1.
         21   -1    0    0  501  502 -0.00000000000E+00 -0.00000000000E+00 -0.26152133237E+03  0.26152133237E+03  0.00000000000E+00 0.  1.
      99926    2    1    2    0    0  0.00000000000E+00 -0.35527136788E-14 -0.59838921123E+02  0.46320374362E+03  0.45932233957E+03 0.  0.
      99925    2    3    3    0    0  0.14801820437E+02 -0.42550826604E+01 -0.15465850075E+03  0.30548418112E+03  0.26299074783E+03 0.  0.
         25    1    4    4    0    0  0.86835897417E+01 -0.21606158462E+02 -0.11876031619E+03  0.17405100292E+03  0.12509000000E+03 0.  0.
         25    1    3    3    0    0 -0.14801820437E+02  0.42550826604E+01  0.94819579625E+02  0.15771956251E+03  0.12509000000E+03 0.  0.
         25    1    4    4    0    0  0.61182306957E+01  0.17351075802E+02 -0.35898184558E+02  0.13143317820E+03  0.12509000000E+03 0.  0.
<mgrwt>
<rscale>  2 0.45932234E+03</rscale>
<asrwt>0</asrwt>
<pdfrwt beam="1">  1       21 0.29659178E-01 0.45932234E+03</pdfrwt>
<pdfrwt beam="2">  1       21 0.38459019E-01 0.45932234E+03</pdfrwt>
<totfact> 0.65655212E+04</totfact>
</mgrwt>
</event>
<event>
 7    0  0.4709932E-002  0.4596886E+03  0.7546771E-02  0.1024872E+00
         21   -1    0    0  502  501  0.00000000000E+00  0.00000000000E+00  0.25476820005E+04  0.25476820005E+04  0.00000000000E+00 0.  1.
         21   -1    0    0  501  502 -0.00000000000E+00 -0.00000000000E+00 -0.20735869685E+02  0.20735869685E+02  0.00000000000E+00 0.  1.
      99926    2    1    2    0    0 -0.71054273576E-14  0.00000000000E+00  0.25269461308E+04  0.25684178702E+04  0.45968859878E+03 0.  0.
      99925    2    3    3    0    0  0.63949258036E+02 -0.66296121309E+02  0.19911229445E+04  0.20105301768E+04  0.26301393220E+03 0.  0.
         25    1    4    4    0    0  0.43446326059E+02 -0.28791668737E+02  0.72768287959E+03  0.74019350496E+03  0.12509000000E+03 0.  0.
         25    1    3    3    0    0 -0.63949258036E+02  0.66296121309E+02  0.53582318635E+03  0.55788769339E+03  0.12509000000E+03 0.  0.
         25    1    4    4    0    0  0.20502931977E+02 -0.37504452571E+02  0.12634400649E+04  0.12703366719E+04  0.12509000000E+03 0.  0.
<mgrwt>
<rscale>  2 0.45968860E+03</rscale>
<asrwt>0</asrwt>
<pdfrwt beam="1">  1       21 0.37465890E+00 0.45968860E+03</pdfrwt>
<pdfrwt beam="2">  1       21 0.30493943E-02 0.45968860E+03</pdfrwt>
<totfact> 0.62267984E+03</totfact>
</mgrwt>
</event>
<event>
 7    0  0.4709932E-002  0.4397386E+03  0.7546771E-02  0.1030827E+00
         21   -1    0    0  502  501  0.00000000000E+00  0.00000000000E+00  0.65981536842E+03  0.65981536842E+03  0.00000000000E+00 0.  1.
         21   -1    0    0  501  502 -0.00000000000E+00 -0.00000000000E+00 -0.73266722156E+02  0.73266722156E+02  0.00000000000E+00 0.  1.
      99926    2    1    2    0    0  0.00000000000E+00  0.00000000000E+00  0.58654864626E+03  0.73308209057E+03  0.43973860086E+03 0.  0.
      99925    2    3    3    0    0  0.75344362529E+02  0.62284755215E+02  0.36093988255E+03  0.45721439391E+03  0.26308029096E+03 0.  0.
         25    1    3    3    0    0 -0.75344362529E+02 -0.62284755215E+02  0.22560876372E+03  0.27586769666E+03  0.12509000000E+03 0.  0.
         25    1    4    4    0    0  0.62437852453E+02  0.62730168650E+02  0.22278181018E+03  0.27039379158E+03  0.12509000000E+03 0.  0.
         25    1    4    4    0    0  0.12906510076E+02 -0.44541343476E+00  0.13815807237E+03  0.18682060233E+03  0.12509000000E+03 0.  0.
<mgrwt>
<rscale>  2 0.43973860E+03</rscale>
<asrwt>0</asrwt>
<pdfrwt beam="1">  1       21 0.97031669E-01 0.43973860E+03</pdfrwt>
<pdfrwt beam="2">  1       21 0.10774518E-01 0.43973860E+03</pdfrwt>
<totfact> 0.57769720E+04</totfact>
</mgrwt>
</event>
<event>
 7    0  0.4709932E-002  0.4566239E+03  0.7546771E-02  0.1025765E+00
         21   -1    0    0  502  501  0.00000000000E+00  0.00000000000E+00  0.15866703310E+04  0.15866703310E+04  0.00000000000E+00 0.  1.
         21   -1    0    0  501  502 -0.00000000000E+00 -0.00000000000E+00 -0.32852664740E+02  0.32852664740E+02  0.00000000000E+00 0.  1.
      99926    2    1    2    0    0  0.00000000000E+00 -0.71054273576E-14  0.15538176663E+04  0.16195229957E+04  0.45662390843E+03 0.  0.
      99925    2    3    3    0    0  0.69927966095E+02  0.46019961609E+02  0.69917638564E+03  0.75172867452E+03  0.26313613310E+03 0.  0.
         25    1    4    4    0    0  0.18931294003E+02  0.48136868997E+02  0.27416003010E+03  0.30575608294E+03  0.12509000000E+03 0.  0.
         25    1    3    3    0    0 -0.69927966095E+02 -0.46019961609E+02  0.85464128062E+03  0.86779432122E+03  0.12509000000E+03 0.  0.
         25    1    4    4    0    0  0.50996672092E+02 -0.21169073880E+01  0.42501635554E+03  0.44597259158E+03  0.12509000000E+03 0.  0.
<mgrwt>
<rscale>  2 0.45662391E+03</rscale>
<asrwt>0</asrwt>
<pdfrwt beam="1">  1       21 0.23333382E+00 0.45662391E+03</pdfrwt>
<pdfrwt beam="2">  1       21 0.48312753E-02 0.45662391E+03</pdfrwt>
<totfact> 0.20729575E+04</totfact>
</mgrwt>
</event>
<event>
 7    0  0.4709932E-002  0.4557522E+03  0.7546771E-02  0.1026020E+00
         21   -1    0    0  502  501  0.00000000000E+00  0.00000000000E+00  0.48334120796E+02  0.48334120796E+02  0.00000000000E+00 0. -1.
         21   -1    0    0  501  502 -0.00000000000E+00 -0.00000000000E+00 -0.10743447769E+04  0.10743447769E+04  0.00000000000E+00 0. -1.
      99926    2    1    2    0    0  0.17763568394E-14  0.14210854715E-13 -0.10260106561E+04  0.11226788977E+04  0.45575217047E+03 0.  0.
      99925    2    3    3    0    0  0.14090917880E+02  0.77911294924E+02 -0.44389342671E+03  0.52203199584E+03  0.26307281609E+03 0.  0.
         25    1    4    4    0    0  0.15879658101E+02  0.48946976151E+02 -0.30053687105E+03  0.32957228187E+03  0.12509000000E+03 0.  0.
         25    1    4    4    0    0 -0.17887402203E+01  0.28964318773E+02 -0.14335655566E+03  0.19245971398E+03  0.12509000000E+03 0.  0.
         25    1    3    3    0    0 -0.14090917880E+02 -0.77911294924E+02 -0.58211722937E+03  0.60064690183E+03  0.12509000000E+03 0.  0.
<mgrwt>
<rscale>  2 0.45575217E+03</rscale>
<asrwt>0</asrwt>
<pdfrwt beam="1">  1       21 0.71079580E-02 0.45575217E+03</pdfrwt>
<pdfrwt beam="2">  1       21 0.15799190E+00 0.45575217E+03</pdfrwt>
<totfact> 0.34504972E+04</totfact>
</mgrwt>
</event>
<event>
 7    0  0.4709932E-002  0.4451916E+03  0.7546771E-02  0.1029166E+00
         21   -1    0    0  502  501  0.00000000000E+00  0.00000000000E+00  0.23609198623E+03  0.23609198623E+03  0.00000000000E+00 0.  1.
         21   -1    0    0  501  502 -0.00000000000E+00 -0.00000000000E+00 -0.20987113182E+03  0.20987113182E+03  0.00000000000E+00 0.  1.
      99926    2    1    2    0    0 -0.17763568394E-14  0.00000000000E+00  0.26220854409E+02  0.44596311805E+03  0.44519160982E+03 0.  0.
      99925    2    3    3    0    0  0.33909738017E+01  0.41961111221E+02  0.11155217063E+03  0.28879704287E+03  0.26303538096E+03 0.  0.
         25    1    3    3    0    0 -0.33909738017E+01 -0.41961111221E+02 -0.85331316224E+02  0.15716607518E+03  0.12509000000E+03 0.  0.
         25    1    4    4    0    0 -0.35881994443E+02  0.98133232646E+01  0.43080962403E+02  0.13743106003E+03  0.12509000000E+03 0.  0.
         25    1    4    4    0    0  0.39272968245E+02  0.32147787957E+02  0.68471208230E+02  0.15136598284E+03  0.12509000000E+03 0.  0.
<mgrwt>
<rscale>  2 0.44519161E+03</rscale>
<asrwt>0</asrwt>
<pdfrwt beam="1">  1       21 0.34719410E-01 0.44519161E+03</pdfrwt>
<pdfrwt beam="2">  1       21 0.30863401E-01 0.44519161E+03</pdfrwt>
<totfact> 0.74905655E+04</totfact>
</mgrwt>
</event>
<event>
 7    0  0.4709932E-002  0.4583843E+03  0.7546771E-02  0.1025251E+00
         21   -1    0    0  502  501  0.00000000000E+00  0.00000000000E+00  0.65365054499E+02  0.65365054499E+02  0.00000000000E+00 0.  1.
         21   -1    0    0  501  502 -0.00000000000E+00 -0.00000000000E+00 -0.80362560607E+03  0.80362560607E+03  0.00000000000E+00 0.  1.
      99926    2    1    2    0    0  0.00000000000E+00  0.00000000000E+00 -0.73826055157E+03  0.86899066057E+03  0.45838425600E+03 0.  0.
      99925    2    3    3    0    0 -0.36572007842E+02 -0.34556893945E+02 -0.66194153016E+03  0.71405908921E+03  0.26302490917E+03 0.  0.
         25    1    3    3    0    0  0.36572007842E+02  0.34556893945E+02 -0.76319021410E+02  0.15493157137E+03  0.12509000000E+03 0.  0.
         25    1    4    4    0    0  0.69321022680E+01  0.13119097255E+02 -0.34457207974E+03  0.36687544343E+03  0.12509000000E+03 0.  0.
         25    1    4    4    0    0 -0.43504110110E+02 -0.47675991200E+02 -0.31736945042E+03  0.34718364578E+03  0.12509000000E+03 0.  0.
<mgrwt>
<rscale>  2 0.45838426E+03</rscale>
<asrwt>0</asrwt>
<pdfrwt beam="1">  1       21 0.96125090E-02 0.45838426E+03</pdfrwt>
<pdfrwt beam="2">  1       21 0.11818022E+00 0.45838426E+03</pdfrwt>
<totfact> 0.43436891E+04</totfact>
</mgrwt>
</event>
<event>
 7    0  0.4709932E-002  0.4643280E+03  0.7546771E-02  0.1023533E+00
         21   -1    0    0  502  501  0.00000000000E+00  0.00000000000E+00  0.64364315533E+03  0.64364315533E+03  0.00000000000E+00 0.  1.
         21   -1    0    0  501  502 -0.00000000000E+00 -0.00000000000E+00 -0.83742249443E+02  0.83742249443E+02  0.00000000000E+00 0.  1.
      99926    2    1    2    0    0  0.00000000000E+00  0.00000000000E+00  0.55990090589E+03  0.72738540478E+03  0.46432801193E+03 0.  0.
      99925    2    3    3    0    0  0.65443845899E+02  0.29060785591E+02  0.19528488364E+03  0.33531426581E+03  0.26300578863E+03 0.  0.
         25    1    4    4    0    0 -0.89428267498E+01  0.11321377944E+02  0.87147242986E+02  0.15313490069E+03  0.12509000000E+03 0.  0.
         25    1    3    3    0    0 -0.65443845899E+02 -0.29060785591E+02  0.36461602225E+03  0.39207113896E+03  0.12509000000E+03 0.  0.
         25    1    4    4    0    0  0.74386672649E+02  0.17739407646E+02  0.10813764065E+03  0.18217936513E+03  0.12509000000E+03 0.  0.
<mgrwt>
<rscale>  2 0.46432801E+03</rscale>
<asrwt>0</asrwt>
<pdfrwt beam="1">  1       21 0.94653403E-01 0.46432801E+03</pdfrwt>
<pdfrwt beam="2">  1       21 0.12315037E-01 0.46432801E+03</pdfrwt>
<totfact> 0.47834442E+04</totfact>
</mgrwt>
</event>
<event>
 7    0  0.4709932E-002  0.4554744E+03  0.7546771E-02  0.1026102E+00
         21   -1    0    0  502  501  0.00000000000E+00  0.00000000000E+00  0.36212945865E+03  0.36212945865E+03  0.00000000000E+00 0.  1.
         21   -1    0    0  501  502 -0.00000000000E+00 -0.00000000000E+00 -0.14322012309E+03  0.14322012309E+03  0.00000000000E+00 0.  1.
      99926    2    1    2    0    0  0.00000000000E+00 -0.14210854715E-13  0.21890933555E+03  0.50534958174E+03  0.45547437093E+03 0.  0.
      99925    2    3    3    0    0  0.58734150409E+02  0.90134973581E+02  0.97276833313E+02  0.30037156441E+03  0.26303285065E+03 0.  0.
         25    1    3    3    0    0 -0.58734150409E+02 -0.90134973581E+02  0.12163250224E+03  0.20497801733E+03  0.12509000000E+03 0.  0.
         25    1    4    4    0    0  0.52459021930E+02  0.82222560558E+02  0.57557269792E+02  0.16873898735E+03  0.12509000000E+03 0.  0.
         25    1    4    4    0    0  0.62751284794E+01  0.79124130229E+01  0.39719563522E+02  0.13163257706E+03  0.12509000000E+03 0.  0.
<mgrwt>
<rscale>  2 0.45547437E+03</rscale>
<asrwt>0</asrwt>
<pdfrwt beam="1">  1       21 0.53254332E-01 0.45547437E+03</pdfrwt>
<pdfrwt beam="2">  1       21 0.21061783E-01 0.45547437E+03</pdfrwt>
<totfact> 0.64652675E+04</totfact>
</mgrwt>
</event>
<event>
 7    0  0.4709932E-002  0.4550734E+03  0.7546771E-02  0.1026220E+00
         21   -1    0    0  502  501  0.00000000000E+00  0.00000000000E+00  0.12461403785E+03  0.12461403785E+03  0.00000000000E+00 0. -1.
         21   -1    0    0  501  502 -0.00000000000E+00 -0.00000000000E+00 -0.41546652118E+03  0.41546652118E+03  0.00000000000E+00 0. -1.
      99926    2    1    2    0    0  0.00000000000E+00  0.00000000000E+00 -0.29085248333E+03  0.54008055904E+03  0.45507344813E+03 0.  0.
      99925    2    3    3    0    0  0.33099852785E+02 -0.71779618733E+02 -0.86609081066E+02  0.28786876433E+03  0.26290564588E+03 0.  0.
         25    1    4    4    0    0 -0.10727513774E+01 -0.63292059465E+02 -0.70500066010E+02  0.15692292055E+03  0.12509000000E+03 0.  0.
         25    1    3    3    0    0 -0.33099852785E+02  0.71779618733E+02 -0.20424340226E+03  0.25221179470E+03  0.12509000000E+03 0.  0.
         25    1    4    4    0    0  0.34172604163E+02 -0.84875592674E+01 -0.16109015056E+02  0.13094584378E+03  0.12509000000E+03 0.  0.
<mgrwt>
<rscale>  2 0.45507345E+03</rscale>
<asrwt>0</asrwt>
<pdfrwt beam="1">  1       21 0.18325594E-01 0.45507345E+03</pdfrwt>
<pdfrwt beam="2">  1       21 0.61098018E-01 0.45507345E+03</pdfrwt>
<totfact> 0.62490463E+04</totfact>
</mgrwt>
</event>
<event>
 7    0  0.4709932E-002  0.4602130E+03  0.7546771E-02  0.1024719E+00
         21   -1    0    0  502  501  0.00000000000E+00  0.00000000000E+00  0.27333586890E+02  0.27333586890E+02  0.00000000000E+00 0. -1.
         21   -1    0    0  501  502 -0.00000000000E+00 -0.00000000000E+00 -0.19371404767E+04  0.19371404767E+04  0.00000000000E+00 0. -1.
      99926    2    1    2    0    0  0.00000000000E+00  0.71054273576E-14 -0.19098068898E+04  0.19644740636E+04  0.46021298348E+03 0.  0.
      99925    2    3    3    0    0 -0.11171744190E+03  0.34734820144E+02 -0.12623667325E+04  0.12947625137E+04  0.26296939976E+03 0.  0.
         25    1    4    4    0    0 -0.90054952133E+02  0.18713893315E+02 -0.57541823608E+03  0.59599811973E+03  0.12509000000E+03 0.  0.
         25    1    3    3    0    0  0.11171744190E+03 -0.34734820144E+02 -0.64744015738E+03  0.66971154988E+03  0.12509000000E+03 0.  0.
         25    1    4    4    0    0 -0.21662489769E+02  0.16020926829E+02 -0.68694849638E+03  0.69876439402E+03  0.12509000000E+03 0.  0.
<mgrwt>
<rscale>  2 0.46021298E+03</rscale>
<asrwt>0</asrwt>
<pdfrwt beam="1">  1       21 0.40196447E-02 0.46021298E+03</pdfrwt>
<pdfrwt beam="2">  1       21 0.28487363E+00 0.46021298E+03</pdfrwt>
<totfact> 0.13734530E+04</totfact>
</mgrwt>
</event>
<event>
 7    0  0.4709932E-002  0.4644599E+03  0.7546771E-02  0.1023496E+00
         21   -1    0    0  502  501  0.00000000000E+00  0.00000000000E+00  0.20907318521E+04  0.20907318521E+04  0.00000000000E+00 0. -1.
         21   -1    0    0  501  502 -0.00000000000E+00 -0.00000000000E+00 -0.25795154058E+02  0.25795154058E+02  0.00000000000E+00 0. -1.
      99926    2    1    2    0    0 -0.35527136788E-14  0.00000000000E+00  0.20649366980E+04  0.21165270062E+04  0.46445990233E+03 0.  0.
      99925    2    3    3    0    0 -0.21590743024E+02  0.91474021842E+02  0.93525160156E+03  0.97605798765E+03  0.26298285150E+03 0.  0.
         25    1    3    3    0    0  0.21590743024E+02 -0.91474021842E+02  0.11296850965E+04  0.11404690185E+04  0.12509000000E+03 0.  0.
         25    1    4    4    0    0  0.13580652038E+02  0.10717542345E+02  0.42477284301E+03  0.44314644993E+03  0.12509000000E+03 0.  0.
         25    1    4    4    0    0 -0.35171395062E+02  0.80756479497E+02  0.51047875855E+03  0.53291153773E+03  0.12509000000E+03 0.  0.
<mgrwt>
<rscale>  2 0.46445990E+03</rscale>
<asrwt>0</asrwt>
<pdfrwt beam="1">  1       21 0.30746045E+00 0.46445990E+03</pdfrwt>
<pdfrwt beam="2">  1       21 0.37934064E-02 0.46445990E+03</pdfrwt>
<totfact> 0.11063769E+04</totfact>
</mgrwt>
</event>
<event>
 7    0  0.4709932E-002  0.4567252E+03  0.7546771E-02  0.1025735E+00
         21   -1    0    0  502  501  0.00000000000E+00  0.00000000000E+00  0.22836381699E+03  0.22836381699E+03  0.00000000000E+00 0. -1.
         21   -1    0    0  501  502 -0.00000000000E+00 -0.00000000000E+00 -0.22836138815E+03  0.22836138815E+03  0.00000000000E+00 0. -1.
      99926    2    1    2    0    0  0.00000000000E+00 -0.35527136788E-14  0.24288408509E-02  0.45672520515E+03  0.45672520514E+03 0.  0.
      99925    2    3    3    0    0  0.13365824605E+02  0.22786425354E+02 -0.11174885970E+03  0.28692024339E+03  0.26294020608E+03 0.  0.
         25    1    4    4    0    0  0.35169982159E+02 -0.16833680497E+02 -0.49547907580E+02  0.14008141807E+03  0.12509000000E+03 0.  0.
         25    1    4    4    0    0 -0.21804157553E+02  0.39620105851E+02 -0.62200952121E+02  0.14683882531E+03  0.12509000000E+03 0.  0.
         25    1    3    3    0    0 -0.13365824605E+02 -0.22786425354E+02  0.11175128854E+03  0.16980496176E+03  0.12509000000E+03 0.  0.
<mgrwt>
<rscale>  2 0.45672521E+03</rscale>
<asrwt>0</asrwt>
<pdfrwt beam="1">  1       21 0.33582914E-01 0.45672521E+03</pdfrwt>
<pdfrwt beam="2">  1       21 0.33582557E-01 0.45672521E+03</pdfrwt>
<totfact> 0.67485826E+04</totfact>
</mgrwt>
</event>
<event>
 7    0  0.4709932E-002  0.4492316E+03  0.7546771E-02  0.1027951E+00
         21   -1    0    0  502  501  0.00000000000E+00  0.00000000000E+00  0.41799399692E+03  0.41799399692E+03  0.00000000000E+00 0.  1.
         21   -1    0    0  501  502 -0.00000000000E+00 -0.00000000000E+00 -0.12070093596E+03  0.12070093596E+03  0.00000000000E+00 0.  1.
      99926    2    1    2    0    0  0.00000000000E+00  0.00000000000E+00  0.29729306096E+03  0.53869493289E+03  0.44923164027E+03 0.  0.
      99925    2    3    3    0    0 -0.61383036880E+02  0.88437348148E+02  0.18742464246E+03  0.34043344079E+03  0.26301689916E+03 0.  0.
         25    1    4    4    0    0 -0.31098029487E+02  0.50991242224E+02  0.14316158616E+03  0.19927353581E+03  0.12509000000E+03 0.  0.
         25    1    4    4    0    0 -0.30285007394E+02  0.37446105925E+02  0.44263056293E+02  0.14115990498E+03  0.12509000000E+03 0.  0.
         25    1    3    3    0    0  0.61383036880E+02 -0.88437348148E+02  0.10986841850E+03  0.19826149210E+03  0.12509000000E+03 0.  0.
<mgrwt>
<rscale>  2 0.44923164E+03</rscale>
<asrwt>0</asrwt>
<pdfrwt beam="1">  1       21 0.61469705E-01 0.44923164E+03</pdfrwt>
<pdfrwt beam="2">  1       21 0.17750138E-01 0.44923164E+03</pdfrwt>
<totfact> 0.65561919E+04</totfact>
</mgrwt>
</event>
<event>
 7    0  0.4709932E-002  0.4525882E+03  0.7546771E-02  0.1026953E+00
         21   -1    0    0  502  501  0.00000000000E+00  0.00000000000E+00  0.12237861142E+03  0.12237861142E+03  0.00000000000E+00 0.  1.
         21   -1    0    0  501  502 -0.00000000000E+00 -0.00000000000E+00 -0.41844747415E+03  0.41844747415E+03  0.00000000000E+00 0.  1.
      99926    2    1    2    0    0  0.00000000000E+00  0.00000000000E+00 -0.29606886274E+03  0.54082608557E+03  0.45258820505E+03 0.  0.
      99925    2    3    3    0    0 -0.80112332142E+02 -0.30996693259E+02 -0.10277718648E+03  0.29508646532E+03  0.26293362508E+03 0.  0.
         25    1    4    4    0    0 -0.52106308790E+02 -0.41350732155E+02 -0.85105571900E+02  0.16527376360E+03  0.12509000000E+03 0.  0.
         25    1    3    3    0    0  0.80112332142E+02  0.30996693259E+02 -0.19329167626E+03  0.24573962026E+03  0.12509000000E+03 0.  0.
         25    1    4    4    0    0 -0.28006023352E+02  0.10354038895E+02 -0.17671614580E+02  0.12981270172E+03  0.12509000000E+03 0.  0.
<mgrwt>
<rscale>  2 0.45258821E+03</rscale>
<asrwt>0</asrwt>
<pdfrwt beam="1">  1       21 0.17996855E-01 0.45258821E+03</pdfrwt>
<pdfrwt beam="2">  1       21 0.61536394E-01 0.45258821E+03</pdfrwt>
<totfact> 0.63683639E+04</totfact>
</mgrwt>
</event>
<event>
 7    0  0.4709932E-002  0.4611337E+03  0.7546771E-02  0.1024453E+00
         21   -1    0    0  502  501  0.00000000000E+00  0.00000000000E+00  0.15190557582E+03  0.15190557582E+03  0.00000000000E+00 0.  1.
         21   -1    0    0  501  502 -0.00000000000E+00 -0.00000000000E+00 -0.34996123442E+03  0.34996123442E+03  0.00000000000E+00 0.  1.
      99926    2    1    2    0    0  0.00000000000E+00  0.00000000000E+00 -0.19805565860E+03  0.50186681024E+03  0.46113365884E+03 0.  0.
      99925    2    3    3    0    0  0.66287498728E+02  0.98511300764E+02 -0.11852063271E+03  0.31194093704E+03  0.26298573908E+03 0.  0.
         25    1    4    4    0    0  0.14649419676E+02  0.91549157996E+01 -0.56018618759E+02  0.13814489396E+03  0.12509000000E+03 0.  0.
         25    1    4    4    0    0  0.51638079052E+02  0.89356384964E+02 -0.62502013948E+02  0.17379604308E+03  0.12509000000E+03 0.  0.
         25    1    3    3    0    0 -0.66287498728E+02 -0.98511300764E+02 -0.79535025890E+02  0.18992587320E+03  0.12509000000E+03 0.  0.
<mgrwt>
<rscale>  2 0.46113366E+03</rscale>
<asrwt>0</asrwt>
<pdfrwt beam="1">  1       21 0.22339056E-01 0.46113366E+03</pdfrwt>
<pdfrwt beam="2">  1       21 0.51464887E-01 0.46113366E+03</pdfrwt>
<totfact> 0.62062376E+04</totfact>
</mgrwt>
</event>
<event>
 7    0  0.4709932E-002  0.3952873E+03  0.7546771E-02  0.1045424E+00
         21   -1    0    0  502  501  0.00000000000E+00  0.00000000000E+00  0.26123024664E+03  0.26123024664E+03  0.00000000000E+00 0.  1.
         21   -1    0    0  501  502 -0.00000000000E+00 -0.00000000000E+00 -0.14953479463E+03  0.14953479463E+03  0.00000000000E+00 0.  1.
      99926    2    1    2    0    0  0.00000000000E+00  0.00000000000E+00  0.11169545201E+03  0.41076504127E+03  0.39528729442E+03 0.  0.
      99925    2    3    3    0    0 -0.11004404179E+02 -0.29971967328E+02  0.60236324293E+02  0.27178674921E+03  0.26309733284E+03 0.  0.
         25    1    3    3    0    0  0.11004404179E+02  0.29971967328E+02  0.51459127718E+02  0.13897829205E+03  0.12509000000E+03 0.  0.
         25    1    4    4    0    0  0.19734443189E+02 -0.53726142125E-01  0.39696168540E+00  0.12663773850E+03  0.12509000000E+03 0.  0.
         25    1    4    4    0    0 -0.30738847367E+02 -0.29918241186E+02  0.59839362608E+02  0.14514901071E+03  0.12509000000E+03 0.  0.
<mgrwt>
<rscale>  2 0.39528729E+03</rscale>
<asrwt>0</asrwt>
<pdfrwt beam="1">  1       21 0.38416213E-01 0.39528729E+03</pdfrwt>
<pdfrwt beam="2">  1       21 0.21990411E-01 0.39528729E+03</pdfrwt>
<totfact> 0.11940827E+05</totfact>
</mgrwt>
</event>
<event>
 7    0  0.4709932E-002  0.4581154E+03  0.7546771E-02  0.1025329E+00
         21   -1    0    0  502  501  0.00000000000E+00  0.00000000000E+00  0.30918949109E+03  0.30918949109E+03  0.00000000000E+00 0.  1.
         21   -1    0    0  501  502 -0.00000000000E+00 -0.00000000000E+00 -0.16969341496E+03  0.16969341496E+03  0.00000000000E+00 0.  1.
      99926    2    1    2    0    0  0.00000000000E+00  0.00000000000E+00  0.13949607612E+03  0.47888290605E+03  0.45811535933E+03 0.  0.
      99925    2    3    3    0    0 -0.53715177821E+02 -0.78512626679E+02  0.18214575768E+02  0.28037279723E+03  0.26311134863E+03 0.  0.
         25    1    3    3    0    0  0.53715177821E+02  0.78512626679E+02  0.12128150035E+03  0.19851010882E+03  0.12509000000E+03 0.  0.
         25    1    4    4    0    0 -0.20270954728E+02 -0.25387673349E+02 -0.29391218068E+02  0.13253979539E+03  0.12509000000E+03 0.  0.
         25    1    4    4    0    0 -0.33444223093E+02 -0.53124953330E+02  0.47605793836E+02  0.14783300183E+03  0.12509000000E+03 0.  0.
<mgrwt>
<rscale>  2 0.45811536E+03</rscale>
<asrwt>0</asrwt>
<pdfrwt beam="1">  1       21 0.45469043E-01 0.45811536E+03</pdfrwt>
<pdfrwt beam="2">  1       21 0.24954914E-01 0.45811536E+03</pdfrwt>
<totfact> 0.65155548E+04</totfact>
</mgrwt>
</event>
<event>
 7    0  0.4709932E-002  0.4065925E+03  0.7546771E-02  0.1041521E+00
         21   -1    0    0  502  501  0.00000000000E+00  0.00000000000E+00  0.78439119677E+02  0.78439119677E+02  0.00000000000E+00 0. -1.
         21   -1    0    0  501  502 -0.00000000000E+00 -0.00000000000E+00 -0.52689725558E+03  0.52689725558E+03  0.00000000000E+00 0. -1.
      99926    2    1    2    0    0  0.00000000000E+00  0.00000000000E+00 -0.44845813591E+03  0.60533637526E+03  0.40659245880E+03 0.  0.
      99925    2    3    3    0    0 -0.19992778885E+02  0.34638978115E+02 -0.35681960270E+03  0.44519675218E+03  0.26321160550E+03 0.  0.
         25    1    4    4    0    0 -0.48602105264E+02  0.53702689651E+01 -0.16947801793E+03  0.21624363826E+03  0.12509000000E+03 0.  0.
         25    1    4    4    0    0  0.28609326379E+02  0.29268709150E+02 -0.18734158476E+03  0.22895311392E+03  0.12509000000E+03 0.  0.
         25    1    3    3    0    0  0.19992778885E+02 -0.34638978115E+02 -0.91638533210E+02  0.16013962308E+03  0.12509000000E+03 0.  0.
<mgrwt>
<rscale>  2 0.40659246E+03</rscale>
<asrwt>0</asrwt>
<pdfrwt beam="1">  1       21 0.11535164E-01 0.40659246E+03</pdfrwt>
<pdfrwt beam="2">  1       21 0.77484892E-01 0.40659246E+03</pdfrwt>
<totfact> 0.87199645E+04</totfact>
</mgrwt>
</event>
<event>
 7    0  0.4709932E-002  0.4486721E+03  0.7546771E-02  0.1028119E+00
         21   -1    0    0  502  501  0.00000000000E+00  0.00000000000E+00  0.58341424923E+03  0.58341424923E+03  0.00000000000E+00 0.  1.
         21   -1    0    0  501  502 -0.00000000000E+00 -0.00000000000E+00 -0.86262316472E+02  0.86262316472E+02  0.00000000000E+00 0.  1.
      99926    2    1    2    0    0  0.00000000000E+00  0.00000000000E+00  0.49715193276E+03  0.66967656571E+03  0.44867210567E+03 0.  0.
      99925    2    3    3    0    0 -0.44914931911E+02  0.57521147545E+02  0.19814886391E+03  0.33744716182E+03  0.26321394574E+03 0.  0.
         25    1    4    4    0    0 -0.12690767117E+01  0.63557885519E+02  0.10838384812E+03  0.17730138747E+03  0.12509000000E+03 0.  0.
         25    1    3    3    0    0  0.44914931911E+02 -0.57521147545E+02  0.29900306885E+03  0.33222940388E+03  0.12509000000E+03 0.  0.
         25    1    4    4    0    0 -0.43645855200E+02 -0.60367379738E+01  0.89765015797E+02  0.16014577435E+03  0.12509000000E+03 0.  0.
<mgrwt>
<rscale>  2 0.44867211E+03</rscale>
<asrwt>0</asrwt>
<pdfrwt beam="1">  1       21 0.85796211E-01 0.44867211E+03</pdfrwt>
<pdfrwt beam="2">  1       21 0.12685635E-01 0.44867211E+03</pdfrwt>
<totfact> 0.57388774E+04</totfact>
</mgrwt>
</event>
<event>
 6    0  0.4775866E-002  0.4499299E+03  0.7546771E-02  0.1027743E+00
         21   -1    0    0  502  501  0.00000000000E+00  0.00000000000E+00  0.18527450541E+03  0.18527450541E+03  0.00000000000E+00 0. -1.
         21   -1    0    0  501  502 -0.00000000000E+00 -0.00000000000E+00 -0.27315804939E+03  0.27315804939E+03  0.00000000000E+00 0. -1.
      99926    2    1    2    0    0  0.00000000000E+00  0.00000000000E+00 -0.87883543972E+02  0.45843255480E+03  0.44992987231E+03 0.  0.
         25    1    3    3    0    0 -0.91469302064E+02 -0.16858347998E+02 -0.54883246254E+02  0.16525893603E+03  0.12509000000E+03 0.  0.
         25    1    3    3    0    0  0.96812418342E+02  0.24757955745E+02 -0.47208972731E+02  0.16691853080E+03  0.12509000000E+03 0.  0.
         25    1    3    3    0    0 -0.53431162774E+01 -0.78996077469E+01  0.14208675013E+02  0.12625508798E+03  0.12509000000E+03 0.  0.
<mgrwt>
<rscale>  2 0.44992987E+03</rscale>
<asrwt>0</asrwt>
<pdfrwt beam="1">  1       21 0.27246251E-01 0.44992987E+03</pdfrwt>
<pdfrwt beam="2">  1       21 0.40170301E-01 0.44992987E+03</pdfrwt>
<totfact> 0.71124158E+04</totfact>
</mgrwt>
</event>
<event>
 7    0  0.4709932E-002  0.4282963E+03  0.7546771E-02  0.1034400E+00
         21   -1    0    0  502  501  0.00000000000E+00  0.00000000000E+00  0.90654845150E+03  0.90654845150E+03  0.00000000000E+00 0. -1.
         21   -1    0    0  501  502 -0.00000000000E+00 -0.00000000000E+00 -0.50586851975E+02  0.50586851975E+02  0.00000000000E+00 0. -1.
      99926    2    1    2    0    0  0.17763568394E-14  0.00000000000E+00  0.85596159953E+03  0.95713530348E+03  0.42829631016E+03 0.  0.
      99925    2    3    3    0    0 -0.45100286957E+01  0.83985963811E+02  0.51739678351E+03  0.58653089818E+03  0.26314459992E+03 0.  0.
         25    1    4    4    0    0  0.21376590220E+02  0.56310335249E+02  0.20186847293E+03  0.24500245087E+03  0.12509000000E+03 0.  0.
         25    1    3    3    0    0  0.45100286957E+01 -0.83985963811E+02  0.33856481602E+03  0.37060440529E+03  0.12509000000E+03 0.  0.
         25    1    4    4    0    0 -0.25886618916E+02  0.27675628562E+02  0.31552831057E+03  0.34152844732E+03  0.12509000000E+03 0.  0.
<mgrwt>
<rscale>  2 0.42829631E+03</rscale>
<asrwt>0</asrwt>
<pdfrwt beam="1">  1       21 0.13331594E+00 0.42829631E+03</pdfrwt>
<pdfrwt beam="2">  1       21 0.74392435E-02 0.42829631E+03</pdfrwt>
<totfact> 0.50625695E+04</totfact>
</mgrwt>
</event>
<event>
 7    0  0.4709932E-002  0.4567347E+03  0.7546771E-02  0.1025733E+00
         21   -1    0    0  502  501  0.00000000000E+00  0.00000000000E+00  0.28028344642E+02  0.28028344642E+02  0.00000000000E+00 0.  1.
         21   -1    0    0  501  502 -0.00000000000E+00 -0.00000000000E+00 -0.18606754011E+04  0.18606754011E+04  0.00000000000E+00 0.  1.
      99926    2    1    2    0    0 -0.14210854715E-13  0.00000000000E+00 -0.18326470564E+04  0.18887037457E+04  0.45673472129E+03 0.  0.
      99925    2    3    3    0    0 -0.99428063954E+02  0.55569264866E+02 -0.10900777584E+04  0.11271063760E+04  0.26291705979E+03 0.  0.
         25    1    3    3    0    0  0.99428063954E+02 -0.55569264866E+02 -0.74256929798E+03  0.76159736968E+03  0.12509000000E+03 0.  0.
         25    1    4    4    0    0 -0.72494987450E+02  0.59173991632E+02 -0.66922857278E+03  0.68722010681E+03  0.12509000000E+03 0.  0.
         25    1    4    4    0    0 -0.26933076504E+02 -0.36047267667E+01 -0.42084918567E+03  0.43988626921E+03  0.12509000000E+03 0.  0.
<mgrwt>
<rscale>  2 0.45673472E+03</rscale>
<asrwt>0</asrwt>
<pdfrwt beam="1">  1       21 0.41218161E-02 0.45673472E+03</pdfrwt>
<pdfrwt beam="2">  1       21 0.27362869E+00 0.45673472E+03</pdfrwt>
<totfact> 0.15404740E+04</totfact>
</mgrwt>
</event>
<event>
 7    0  0.4709932E-002  0.4543301E+03  0.7546771E-02  0.1026439E+00
         21   -1    0    0  502  501  0.00000000000E+00  0.00000000000E+00  0.81426435159E+02  0.81426435159E+02  0.00000000000E+00 0. -1.
         21   -1    0    0  501  502 -0.00000000000E+00 -0.00000000000E+00 -0.63374949673E+03  0.63374949673E+03  0.00000000000E+00 0. -1.
      99926    2    1    2    0    0  0.00000000000E+00  0.14210854715E-13 -0.55232306157E+03  0.71517593189E+03  0.45433011039E+03 0.  0.
      99925    2    3    3    0    0 -0.36269185679E+02  0.88373789811E+02 -0.25431107264E+03  0.37815362669E+03  0.26306018922E+03 0.  0.
         25    1    4    4    0    0 -0.21289662805E+02  0.77126640392E+01 -0.14526635931E+03  0.19303512161E+03  0.12509000000E+03 0.  0.
         25    1    3    3    0    0  0.36269185679E+02 -0.88373789811E+02 -0.29801198893E+03  0.33702230520E+03  0.12509000000E+03 0.  0.
         25    1    4    4    0    0 -0.14979522874E+02  0.80661125772E+02 -0.10904471333E+03  0.18511850508E+03  0.12509000000E+03 0.  0.
<mgrwt>
<rscale>  2 0.45433011E+03</rscale>
<asrwt>0</asrwt>
<pdfrwt beam="1">  1       21 0.11974476E-01 0.45433011E+03</pdfrwt>
<pdfrwt beam="2">  1       21 0.93198456E-01 0.45433011E+03</pdfrwt>
<totfact> 0.52362153E+04</totfact>
</mgrwt>
</event>
<event>
 7    0  0.4709932E-002  0.4556221E+03  0.7546771E-02  0.1026059E+00
         21   -1    0    0  502  501  0.00000000000E+00  0.00000000000E+00  0.23518955876E+03  0.23518955876E+03  0.00000000000E+00 0.  1.
         21   -1    0    0  501  502 -0.00000000000E+00 -0.00000000000E+00 -0.22066404892E+03  0.22066404892E+03  0.00000000000E+00 0.  1.
      99926    2    1    2    0    0 -0.88817841970E-15  0.00000000000E+00  0.14525509835E+02  0.45585360768E+03  0.45562212544E+03 0.  0.
      99925    2    3    3    0    0  0.13432711366E+01 -0.48442995583E+02 -0.93797223482E+02  0.28343014392E+03  0.26303269598E+03 0.  0.
         25    1    4    4    0    0 -0.28815082162E+02 -0.21068128057E+02 -0.17237741726E+02  0.13122051219E+03  0.12509000000E+03 0.  0.
         25    1    3    3    0    0 -0.13432711366E+01  0.48442995583E+02  0.10832273332E+03  0.17242346375E+03  0.12509000000E+03 0.  0.
         25    1    4    4    0    0  0.30158353299E+02 -0.27374867526E+02 -0.76559481756E+02  0.15220963173E+03  0.12509000000E+03 0.  0.
<mgrwt>
<rscale>  2 0.45562213E+03</rscale>
<asrwt>0</asrwt>
<pdfrwt beam="1">  1       21 0.34586700E-01 0.45562213E+03</pdfrwt>
<pdfrwt beam="2">  1       21 0.32450595E-01 0.45562213E+03</pdfrwt>
<totfact> 0.68144425E+04</totfact>
</mgrwt>
</event>
<event>
 7    0  0.4709932E-002  0.4532092E+03  0.7546771E-02  0.1026769E+00
         21   -1    0    0  502  501  0.00000000000E+00  0.00000000000E+00  0.81626861288E+02  0.81626861288E+02  0.00000000000E+00 0. -1.
         21   -1    0    0  501  502 -0.00000000000E+00 -0.00000000000E+00 -0.62907791577E+03  0.62907791577E+03  0.00000000000E+00 0. -1.
      99926    2    1    2    0    0  0.00000000000E+00  0.00000000000E+00 -0.54745105448E+03  0.71070477706E+03  0.45320924867E+03 0.  0.
      99925    2    3    3    0    0 -0.34376650449E+02  0.94195263108E+02 -0.42173079724E+03  0.50697065407E+03  0.26288377101E+03 0.  0.
         25    1    3    3    0    0  0.34376650449E+02 -0.94195263108E+02 -0.12572025724E+03  0.20373412299E+03  0.12509000000E+03 0.  0.
         25    1    4    4    0    0  0.20535648173E+01  0.96322645053E+01 -0.17268970436E+03  0.21346250195E+03  0.12509000000E+03 0.  0.
         25    1    4    4    0    0 -0.36430215266E+02  0.84562998603E+02 -0.24904109289E+03  0.29350815212E+03  0.12509000000E+03 0.  0.
<mgrwt>
<rscale>  2 0.45320925E+03</rscale>
<asrwt>0</asrwt>
<pdfrwt beam="1">  1       21 0.12003950E-01 0.45320925E+03</pdfrwt>
<pdfrwt beam="2">  1       21 0.92511457E-01 0.45320925E+03</pdfrwt>
<totfact> 0.53069358E+04</totfact>
</mgrwt>
</event>
<event>
 7    0  0.4709932E-002  0.4547161E+03  0.7546771E-02  0.1026325E+00
         21   -1    0    0  502  501  0.00000000000E+00  0.00000000000E+00  0.10002821447E+04  0.10002821447E+04  0.00000000000E+00 0.  1.
         21   -1    0    0  501  502 -0.00000000000E+00 -0.00000000000E+00 -0.51677101889E+02  0.51677101889E+02  0.00000000000E+00 0.  1.
      99926    2    1    2    0    0  0.35527136788E-14  0.00000000000E+00  0.94860504277E+03  0.10519592465E+04  0.45471609740E+03 0.  0.
      99925    2    3    3    0    0 -0.15672032644E+02 -0.11004023940E+03  0.64450475632E+03  0.70485845540E+03  0.26283948399E+03 0.  0.
         25    1    4    4    0    0  0.48862379680E+01 -0.84437930084E+02  0.41209208332E+03  0.43888612714E+03  0.12509000000E+03 0.  0.
         25    1    3    3    0    0  0.15672032644E+02  0.11004023940E+03  0.30410028645E+03  0.34710079115E+03  0.12509000000E+03 0.  0.
         25    1    4    4    0    0 -0.20558270612E+02 -0.25602309315E+02  0.23241267300E+03  0.26597232826E+03  0.12509000000E+03 0.  0.
<mgrwt>
<rscale>  2 0.45471610E+03</rscale>
<asrwt>0</asrwt>
<pdfrwt beam="1">  1       21 0.14710030E+00 0.45471610E+03</pdfrwt>
<pdfrwt beam="2">  1       21 0.75995745E-02 0.45471610E+03</pdfrwt>
<totfact> 0.37288137E+04</totfact>
</mgrwt>
</event>
<event>
 6    0  0.4709932E-002  0.4580800E+03  0.7546771E-02  0.1025340E+00
         21   -1    0    0  502  501  0.00000000000E+00  0.00000000000E+00  0.76181568117E+03  0.76181568117E+03  0.00000000000E+00 0.  1.
         21   -1    0    0  501  502 -0.00000000000E+00 -0.00000000000E+00 -0.68860923059E+02  0.68860923059E+02  0.00000000000E+00 0.  1.
      99926    2    1    2    0    0  0.00000000000E+00  0.00000000000E+00  0.69295475811E+03  0.83067660423E+03  0.45808004107E+03 0.  0.
         25    1    3    3    0    0 -0.19014806273E+02  0.27635777367E+02  0.20088544489E+03  0.23901416091E+03  0.12509000000E+03 0.  0.
         25    1    3    3    0    0  0.95663481849E+01  0.34186751148E+02  0.40860819743E+03  0.42879880606E+03  0.12509000000E+03 0.  0.
         25    1    3    3    0    0  0.94484580885E+01 -0.61822528515E+02  0.83461115799E+02  0.16286363726E+03  0.12509000000E+03 0.  0.
<mgrwt>
<rscale>  2 0.45808004E+03</rscale>
<asrwt>0</asrwt>
<pdfrwt beam="1">  1       21 0.11203171E+00 0.45808004E+03</pdfrwt>
<pdfrwt beam="2">  1       21 0.10126607E-01 0.45808004E+03</pdfrwt>
<totfact> 0.45213950E+04</totfact>
</mgrwt>
</event>
<event>
 7    0  0.4709932E-002  0.4499916E+03  0.7546771E-02  0.1027725E+00
         21   -1    0    0  502  501  0.00000000000E+00  0.00000000000E+00  0.23633009861E+03  0.23633009861E+03  0.00000000000E+00 0.  1.
         21   -1    0    0  501  502 -0.00000000000E+00 -0.00000000000E+00 -0.21420505348E+03  0.21420505348E+03  0.00000000000E+00 0.  1.
      99926    2    1    2    0    0  0.00000000000E+00  0.14210854715E-13  0.22125045127E+02  0.45053515209E+03  0.44999156175E+03 0.  0.
      99925    2    3    3    0    0 -0.31891516421E+00  0.10383085731E+03 -0.17269728198E+02  0.28326170858E+03  0.26297909308E+03 0.  0.
         25    1    3    3    0    0  0.31891516421E+00 -0.10383085731E+03  0.39394773325E+02  0.16727344351E+03  0.12509000000E+03 0.  0.
         25    1    4    4    0    0 -0.27995764689E+02  0.20915459534E+02 -0.20122492111E+01  0.12989525216E+03  0.12509000000E+03 0.  0.
         25    1    4    4    0    0  0.27676849525E+02  0.82915397781E+02 -0.15257478987E+02  0.15336645642E+03  0.12509000000E+03 0.  0.
<mgrwt>
<rscale>  2 0.44999156E+03</rscale>
<asrwt>0</asrwt>
<pdfrwt beam="1">  1       21 0.34754426E-01 0.44999156E+03</pdfrwt>
<pdfrwt beam="2">  1       21 0.31500743E-01 0.44999156E+03</pdfrwt>
<totfact> 0.71696722E+04</totfact>
</mgrwt>
</event>
<event>
 7    0  0.4709932E-002  0.4423939E+03  0.7546771E-02  0.1030015E+00
         21   -1    0    0  502  501  0.00000000000E+00  0.00000000000E+00  0.15994627554E+04  0.15994627554E+04  0.00000000000E+00 0. -1.
         21   -1    0    0  501  502 -0.00000000000E+00 -0.00000000000E+00 -0.30590323555E+02  0.30590323555E+02  0.00000000000E+00 0. -1.
      99926    2    1    2    0    0  0.00000000000E+00  0.11102230246E-14  0.15688724318E+04  0.16300530789E+04  0.44239386615E+03 0.  0.
      99925    2    3    3    0    0  0.97931981561E+02 -0.16795255177E+01  0.91169093671E+03  0.95394027811E+03  0.26311251643E+03 0.  0.
         25    1    4    4    0    0  0.53975660126E+02 -0.32303660139E+02  0.37562302947E+03  0.40087038643E+03  0.12509000000E+03 0.  0.
         25    1    3    3    0    0 -0.97931981561E+02  0.16795255177E+01  0.65718149513E+03  0.67611280084E+03  0.12509000000E+03 0.  0.
         25    1    4    4    0    0  0.43956321435E+02  0.30624134621E+02  0.53606790724E+03  0.55306989168E+03  0.12509000000E+03 0.  0.
<mgrwt>
<rscale>  2 0.44239387E+03</rscale>
<asrwt>0</asrwt>
<pdfrwt beam="1">  1       21 0.23521505E+00 0.44239387E+03</pdfrwt>
<pdfrwt beam="2">  1       21 0.44985781E-02 0.44239387E+03</pdfrwt>
<totfact> 0.22922040E+04</totfact>
</mgrwt>
</event>
<event>
 7    0  0.4709932E-002  0.4325582E+03  0.7546771E-02  0.1033055E+00
         21   -1    0    0  502  501  0.00000000000E+00  0.00000000000E+00  0.14425399078E+03  0.14425399078E+03  0.00000000000E+00 0. -1.
         21   -1    0    0  501  502 -0.00000000000E+00 -0.00000000000E+00 -0.32426590545E+03  0.32426590545E+03  0.00000000000E+00 0. -1.
      99926    2    1    2    0    0  0.35527136788E-14  0.00000000000E+00 -0.18001191468E+03  0.46851989623E+03  0.43255820850E+03 0.  0.
      99925    2    3    3    0    0 -0.86913413428E+01 -0.68261040077E+02 -0.51942398371E+02  0.27672725270E+03  0.26295408464E+03 0.  0.
         25    1    3    3    0    0  0.86913413428E+01  0.68261040077E+02 -0.12806951631E+03  0.19179264353E+03  0.12509000000E+03 0.  0.
         25    1    4    4    0    0  0.28100593576E+02 -0.16732919546E+02 -0.42935550882E+02  0.13623730614E+03  0.12509000000E+03 0.  0.
         25    1    4    4    0    0 -0.36791934919E+02 -0.51528120531E+02 -0.90068474892E+01  0.14048994655E+03  0.12509000000E+03 0.  0.
<mgrwt>
<rscale>  2 0.43255821E+03</rscale>
<asrwt>0</asrwt>
<pdfrwt beam="1">  1       21 0.21213822E-01 0.43255821E+03</pdfrwt>
<pdfrwt beam="2">  1       21 0.47686162E-01 0.43255821E+03</pdfrwt>
<totfact> 0.81049012E+04</totfact>
</mgrwt>
</event>
<event>
 7    0  0.4709932E-002  0.4439406E+03  0.7546771E-02  0.1029545E+00
         21   -1    0    0  502  501  0.00000000000E+00  0.00000000000E+00  0.93088312301E+02  0.93088312301E+02  0.00000000000E+00 0.  1.
         21   -1    0    0  501  502 -0.00000000000E+00 -0.00000000000E+00 -0.52929114350E+03  0.52929114350E+03  0.00000000000E+00 0.  1.
      99926    2    1    2    0    0  0.14210854715E-13  0.00000000000E+00 -0.43620283119E+03  0.62237945580E+03  0.44394062335E+03 0.  0.
      99925    2    3    3    0    0 -0.74832459334E+02  0.57368102454E+02 -0.22164181700E+03  0.35672002520E+03  0.26312180676E+03 0.  0.
         25    1    4    4    0    0 -0.69186652260E+02  0.37310465692E+02 -0.15231376537E+03  0.21219296624E+03  0.12509000000E+03 0.  0.
         25    1    4    4    0    0 -0.56458070740E+01  0.20057636762E+02 -0.69328051623E+02  0.14452705896E+03  0.12509000000E+03 0.  0.
         25    1    3    3    0    0  0.74832459334E+02 -0.57368102454E+02 -0.21456101420E+03  0.26565943059E+03  0.12509000000E+03 0.  0.
<mgrwt>
<rscale>  2 0.44394062E+03</rscale>
<asrwt>0</asrwt>
<pdfrwt beam="1">  1       21 0.13689458E-01 0.44394062E+03</pdfrwt>
<pdfrwt beam="2">  1       21 0.77836931E-01 0.44394062E+03</pdfrwt>
<totfact> 0.62612129E+04</totfact>
</mgrwt>
</event>
<event>
 7    0  0.4709932E-002  0.4535156E+03  0.7546771E-02  0.1026679E+00
         21   -1    0    0  502  501  0.00000000000E+00  0.00000000000E+00  0.50039894331E+03  0.50039894331E+03  0.00000000000E+00 0.  1.
         21   -1    0    0  501  502 -0.00000000000E+00 -0.00000000000E+00 -0.10275621778E+03  0.10275621778E+03  0.00000000000E+00 0.  1.
      99926    2    1    2    0    0 -0.35527136788E-14  0.00000000000E+00  0.39764272553E+03  0.60315516108E+03  0.45351561293E+03 0.  0.
      99925    2    3    3    0    0  0.25761687527E+02 -0.39279861272E+02  0.38544591033E+03  0.46898048968E+03  0.26299729630E+03 0.  0.
         25    1    3    3    0    0 -0.25761687527E+02  0.39279861272E+02  0.12196815200E+02  0.13417467141E+03  0.12509000000E+03 0.  0.
         25    1    4    4    0    0  0.48937032849E+02 -0.11606301436E+01  0.19707056278E+03  0.23849632085E+03  0.12509000000E+03 0.  0.
         25    1    4    4    0    0 -0.23175345322E+02 -0.38119231129E+02  0.18837534755E+03  0.23048416882E+03  0.12509000000E+03 0.  0.
<mgrwt>
<rscale>  2 0.45351561E+03</rscale>
<asrwt>0</asrwt>
<pdfrwt beam="1">  1       21 0.73588079E-01 0.45351561E+03</pdfrwt>
<pdfrwt beam="2">  1       21 0.15111209E-01 0.45351561E+03</pdfrwt>
<totfact> 0.59175403E+04</totfact>
</mgrwt>
</event>
<event>
 7    0  0.4709932E-002  0.4605127E+03  0.7546771E-02  0.1024633E+00
         21   -1    0    0  502  501  0.00000000000E+00  0.00000000000E+00  0.20219394379E+02  0.20219394379E+02  0.00000000000E+00 0. -1.
         21   -1    0    0  501  502 -0.00000000000E+00 -0.00000000000E+00 -0.26221350709E+04  0.26221350709E+04  0.00000000000E+00 0. -1.
      99926    2    1    2    0    0  0.00000000000E+00  0.00000000000E+00 -0.26019156765E+04  0.26423544653E+04  0.46051268436E+03 0.  0.
      99925    2    3    3    0    0 -0.12755678883E+02 -0.17715153783E+02 -0.96235064664E+03  0.99787961618E+03  0.26299891117E+03 0.  0.
         25    1    4    4    0    0 -0.11276807593E+02  0.29385394563E+02 -0.42432722064E+03  0.44349945443E+03  0.12509000000E+03 0.  0.
         25    1    4    4    0    0 -0.14788712901E+01 -0.47100548347E+02 -0.53802342601E+03  0.55438016175E+03  0.12509000000E+03 0.  0.
         25    1    3    3    0    0  0.12755678883E+02  0.17715153783E+02 -0.16395650299E+04  0.16444748491E+04  0.12509000000E+03 0.  0.
<mgrwt>
<rscale>  2 0.46051268E+03</rscale>
<asrwt>0</asrwt>
<pdfrwt beam="1">  1       21 0.29734407E-02 0.46051268E+03</pdfrwt>
<pdfrwt beam="2">  1       21 0.38560805E+00 0.46051268E+03</pdfrwt>
<totfact> 0.55408912E+03</totfact>
</mgrwt>
</event>
<event>
 7    0  0.4709932E-002  0.4561494E+03  0.7546771E-02  0.1025904E+00
         21   -1    0    0  502  501  0.00000000000E+00  0.00000000000E+00  0.22913233603E+02  0.22913233603E+02  0.00000000000E+00 0.  1.
         21   -1    0    0  501  502 -0.00000000000E+00 -0.00000000000E+00 -0.22702189857E+04  0.22702189857E+04  0.00000000000E+00 0.  1.
      99926    2    1    2    0    0  0.00000000000E+00  0.00000000000E+00 -0.22473057521E+04  0.22931322193E+04  0.45614935251E+03 0.  0.
      99925    2    3    3    0    0 -0.10507786651E+03  0.66295406730E+01 -0.16327817016E+04  0.16572292192E+04  0.26333873803E+03 0.  0.
         25    1    4    4    0    0 -0.15278851483E+02  0.11865052058E+02 -0.85681429937E+03  0.86611343049E+03  0.12509000000E+03 0.  0.
         25    1    3    3    0    0  0.10507786651E+03 -0.66295406730E+01 -0.61452405051E+03  0.63590300015E+03  0.12509000000E+03 0.  0.
         25    1    4    4    0    0 -0.89799015031E+02 -0.52355113854E+01 -0.77596740221E+03  0.79111578866E+03  0.12509000000E+03 0.  0.
<mgrwt>
<rscale>  2 0.45614935E+03</rscale>
<asrwt>0</asrwt>
<pdfrwt beam="1">  1       21 0.33695946E-02 0.45614935E+03</pdfrwt>
<pdfrwt beam="2">  1       21 0.33385559E+00 0.45614935E+03</pdfrwt>
<totfact> 0.94028123E+03</totfact>
</mgrwt>
</event>
<event>
 7    0  0.4709932E-002  0.4512241E+03  0.7546771E-02  0.1027358E+00
         21   -1    0    0  502  501  0.00000000000E+00  0.00000000000E+00  0.62046090820E+02  0.62046090820E+02  0.00000000000E+00 0. -1.
         21   -1    0    0  501  502 -0.00000000000E+00 -0.00000000000E+00 -0.82037081980E+03  0.82037081980E+03  0.00000000000E+00 0. -1.
      99926    2    1    2    0    0  0.00000000000E+00  0.88817841970E-15 -0.75832472898E+03  0.88241691062E+03  0.45122412343E+03 0.  0.
      99925    2    3    3    0    0 -0.83063807197E+02 -0.31715810860E+01 -0.61852724166E+03  0.67723284556E+03  0.26298046208E+03 0.  0.
         25    1    4    4    0    0 -0.28587334797E+02 -0.19297159260E+02 -0.38513162693E+03  0.40640311789E+03  0.12509000000E+03 0.  0.
         25    1    4    4    0    0 -0.54476472400E+02  0.16125578174E+02 -0.23339561472E+03  0.27082972767E+03  0.12509000000E+03 0.  0.
         25    1    3    3    0    0  0.83063807197E+02  0.31715810860E+01 -0.13979748732E+03  0.20518406506E+03  0.12509000000E+03 0.  0.
<mgrwt>
<rscale>  2 0.45122412E+03</rscale>
<asrwt>0</asrwt>
<pdfrwt beam="1">  1       21 0.91244253E-02 0.45122412E+03</pdfrwt>
<pdfrwt beam="2">  1       21 0.12064277E+00 0.45122412E+03</pdfrwt>
<totfact> 0.45328286E+04</totfact>
</mgrwt>
</event>
<event>
 7    0  0.4709932E-002  0.4541819E+03  0.7546771E-02  0.1026482E+00
         21   -1    0    0  502  501  0.00000000000E+00  0.00000000000E+00  0.27890298341E+03  0.27890298341E+03  0.00000000000E+00 0.  1.
         21   -1    0    0  501  502 -0.00000000000E+00 -0.00000000000E+00 -0.18490411058E+03  0.18490411058E+03  0.00000000000E+00 0.  1.
      99926    2    1    2    0    0 -0.17763568394E-14  0.00000000000E+00  0.93998872835E+02  0.46380709399E+03  0.45418193748E+03 0.  0.
      99925    2    3    3    0    0 -0.13521557665E+02  0.25910735730E+02 -0.51683077482E+02  0.26957800889E+03  0.26295810243E+03 0.  0.
         25    1    4    4    0    0 -0.27602955312E+02  0.46899459504E+02 -0.18059203387E+02  0.13760496129E+03  0.12509000000E+03 0.  0.
         25    1    4    4    0    0  0.14081397647E+02 -0.20988723774E+02 -0.33623874094E+02  0.13197304761E+03  0.12509000000E+03 0.  0.
         25    1    3    3    0    0  0.13521557665E+02 -0.25910735730E+02  0.14568195032E+03  0.19422908509E+03  0.12509000000E+03 0.  0.
<mgrwt>
<rscale>  2 0.45418194E+03</rscale>
<asrwt>0</asrwt>
<pdfrwt beam="1">  1       21 0.41015145E-01 0.45418194E+03</pdfrwt>
<pdfrwt beam="2">  1       21 0.27191781E-01 0.45418194E+03</pdfrwt>
<totfact> 0.68342271E+04</totfact>
</mgrwt>
</event>
<event>
 7    0  0.4709932E-002  0.4620210E+03  0.7546771E-02  0.1024197E+00
         21   -1    0    0  502  501  0.00000000000E+00  0.00000000000E+00  0.10093945477E+03  0.10093945477E+03  0.00000000000E+00 0.  1.
         21   -1    0    0  501  502 -0.00000000000E+00 -0.00000000000E+00 -0.52869174676E+03  0.52869174676E+03  0.00000000000E+00 0.  1.
      99926    2    1    2    0    0  0.00000000000E+00  0.35527136788E-14 -0.42775229199E+03  0.62963120153E+03  0.46202102402E+03 0.  0.
      99925    2    3    3    0    0  0.92439525810E+02 -0.31805651087E+02 -0.17360071153E+03  0.32996939328E+03  0.26303218070E+03 0.  0.
         25    1    4    4    0    0  0.40815767960E+02 -0.32377177136E+02 -0.13003336716E+03  0.18780413518E+03  0.12509000000E+03 0.  0.
         25    1    4    4    0    0  0.51623757850E+02  0.57152604817E+00 -0.43567344370E+02  0.14216525810E+03  0.12509000000E+03 0.  0.
         25    1    3    3    0    0 -0.92439525810E+02  0.31805651087E+02 -0.25415158046E+03  0.29966180825E+03  0.12509000000E+03 0.  0.
<mgrwt>
<rscale>  2 0.46202102E+03</rscale>
<asrwt>0</asrwt>
<pdfrwt beam="1">  1       21 0.14844038E-01 0.46202102E+03</pdfrwt>
<pdfrwt beam="2">  1       21 0.77748785E-01 0.46202102E+03</pdfrwt>
<totfact> 0.53843408E+04</totfact>
</mgrwt>
</event>
<event>
 7    0  0.4709932E-002  0.4544079E+03  0.7546771E-02  0.1026416E+00
         21   -1    0    0  502  501  0.00000000000E+00  0.00000000000E+00  0.20345105033E+03  0.20345105033E+03  0.00000000000E+00 0. -1.
         21   -1    0    0  501  502 -0.00000000000E+00 -0.00000000000E+00 -0.25373002957E+03  0.25373002957E+03  0.00000000000E+00 0. -1.
      99926    2    1    2    0    0  0.00000000000E+00  0.00000000000E+00 -0.50278979236E+02  0.45718107990E+03  0.45440792694E+03 0.  0.
      99925    2    3    3    0    0  0.39933361177E+02 -0.10367382772E+03 -0.13250160163E+02  0.28582887702E+03  0.26302023554E+03 0.  0.
         25    1    4    4    0    0  0.30880959970E+02 -0.44718080338E+02 -0.45071527644E+02  0.14363944828E+03  0.12509000000E+03 0.  0.
         25    1    3    3    0    0 -0.39933361177E+02  0.10367382772E+03 -0.37028819073E+02  0.17135220288E+03  0.12509000000E+03 0.  0.
         25    1    4    4    0    0  0.90524012069E+01 -0.58955747383E+02  0.31821367481E+02  0.14218942874E+03  0.12509000000E+03 0.  0.
<mgrwt>
<rscale>  2 0.45440793E+03</rscale>
<asrwt>0</asrwt>
<pdfrwt beam="1">  1       21 0.29919272E-01 0.45440793E+03</pdfrwt>
<pdfrwt beam="2">  1       21 0.37313239E-01 0.45440793E+03</pdfrwt>
<totfact> 0.68710249E+04</totfact>
</mgrwt>
</event>
<event>
 7    0  0.4709932E-002  0.4654165E+03  0.7546771E-02  0.1023222E+00
         21   -1    0    0  502  501  0.00000000000E+00  0.00000000000E+00  0.45224394668E+03  0.45224394668E+03  0.00000000000E+00 0.  1.
         21   -1    0    0  501  502 -0.00000000000E+00 -0.00000000000E+00 -0.11974320794E+03  0.11974320794E+03  0.00000000000E+00 0.  1.
      99926    2    1    2    0    0  0.71054273576E-14  0.00000000000E+00  0.33250073874E+03  0.57198715461E+03  0.46541654868E+03 0.  0.
      99925    2    3    3    0    0 -0.43020300670E+02 -0.67988044429E+02  0.93545288577E+02  0.29052608143E+03  0.26302388204E+03 0.  0.
         25    1    4    4    0    0  0.64298294388E+01 -0.25627849705E+01  0.48099696263E+02  0.13419761344E+03  0.12509000000E+03 0.  0.
         25    1    4    4    0    0 -0.49450130109E+02 -0.65425259458E+02  0.45445592314E+02  0.15632846799E+03  0.12509000000E+03 0.  0.
         25    1    3    3    0    0  0.43020300670E+02  0.67988044429E+02  0.23895545016E+03  0.28146107318E+03  0.12509000000E+03 0.  0.
<mgrwt>
<rscale>  2 0.46541655E+03</rscale>
<asrwt>0</asrwt>
<pdfrwt beam="1">  1       21 0.66506462E-01 0.46541655E+03</pdfrwt>
<pdfrwt beam="2">  1       21 0.17609296E-01 0.46541655E+03</pdfrwt>
<totfact> 0.55704366E+04</totfact>
</mgrwt>
</event>
<event>
 7    0  0.4709932E-002  0.4521127E+03  0.7546771E-02  0.1027094E+00
         21   -1    0    0  502  501  0.00000000000E+00  0.00000000000E+00  0.48578998366E+02  0.48578998366E+02  0.00000000000E+00 0. -1.
         21   -1    0    0  501  502 -0.00000000000E+00 -0.00000000000E+00 -0.10519253054E+04  0.10519253054E+04  0.00000000000E+00 0. -1.
      99926    2    1    2    0    0  0.00000000000E+00  0.00000000000E+00 -0.10033463071E+04  0.11005043038E+04  0.45211271910E+03 0.  0.
      99925    2    3    3    0    0 -0.17552138808E+02 -0.10521022251E+03 -0.56386870461E+03  0.63128650825E+03  0.26305412174E+03 0.  0.
         25    1    4    4    0    0  0.15213532578E+02 -0.86345122076E+02 -0.28668054392E+03  0.32483868926E+03  0.12509000000E+03 0.  0.
         25    1    4    4    0    0 -0.32765671386E+02 -0.18865100435E+02 -0.27718816069E+03  0.30644781899E+03  0.12509000000E+03 0.  0.
         25    1    3    3    0    0  0.17552138808E+02  0.10521022251E+03 -0.43947760246E+03  0.46921779555E+03  0.12509000000E+03 0.  0.
<mgrwt>
<rscale>  2 0.45211272E+03</rscale>
<asrwt>0</asrwt>
<pdfrwt beam="1">  1       21 0.71439713E-02 0.45211272E+03</pdfrwt>
<pdfrwt beam="2">  1       21 0.15469488E+00 0.45211272E+03</pdfrwt>
<totfact> 0.36287198E+04</totfact>
</mgrwt>
</event>
<event>
 7    0  0.4709932E-002  0.4578431E+03  0.7546771E-02  0.1025409E+00
         21   -1    0    0  502  501  0.00000000000E+00  0.00000000000E+00  0.36715405715E+03  0.36715405715E+03  0.00000000000E+00 0. -1.
         21   -1    0    0  501  502 -0.00000000000E+00 -0.00000000000E+00 -0.14273323267E+03  0.14273323267E+03  0.00000000000E+00 0. -1.
      99926    2    1    2    0    0  0.71054273576E-14  0.00000000000E+00  0.22442082448E+03  0.50988728982E+03  0.45784314110E+03 0.  0.
      99925    2    3    3    0    0  0.41202735864E+02  0.80838068156E+02  0.22108380779E+03  0.35531982077E+03  0.26294802958E+03 0.  0.
         25    1    4    4    0    0  0.60612099941E+02  0.37834693463E+02  0.10499810650E+03  0.17826216973E+03  0.12509000000E+03 0.  0.
         25    1    4    4    0    0 -0.19409364077E+02  0.43003374693E+02  0.11608570129E+03  0.17705765104E+03  0.12509000000E+03 0.  0.
         25    1    3    3    0    0 -0.41202735864E+02 -0.80838068156E+02  0.33370166886E+01  0.15456746904E+03  0.12509000000E+03 0.  0.
<mgrwt>
<rscale>  2 0.45784314E+03</rscale>
<asrwt>0</asrwt>
<pdfrwt beam="1">  1       21 0.53993243E-01 0.45784314E+03</pdfrwt>
<pdfrwt beam="2">  1       21 0.20990181E-01 0.45784314E+03</pdfrwt>
<totfact> 0.63144547E+04</totfact>
</mgrwt>
</event>
<event>
 7    0  0.4709932E-002  0.4666186E+03  0.7546771E-02  0.1022879E+00
         21   -1    0    0  502  501  0.00000000000E+00  0.00000000000E+00  0.84572550781E+03  0.84572550781E+03  0.00000000000E+00 0. -1.
         21   -1    0    0  501  502 -0.00000000000E+00 -0.00000000000E+00 -0.64362764615E+02  0.64362764615E+02  0.00000000000E+00 0. -1.
      99926    2    1    2    0    0  0.71054273576E-14 -0.14210854715E-13  0.78136274320E+03  0.91008827243E+03  0.46661860995E+03 0.  0.
      99925    2    3    3    0    0  0.43763200714E+02 -0.10450408599E+03  0.38977055673E+03  0.48367501006E+03  0.26302871846E+03 0.  0.
         25    1    3    3    0    0 -0.43763200714E+02  0.10450408599E+03  0.39159218647E+03  0.42641326237E+03  0.12509000000E+03 0.  0.
         25    1    4    4    0    0  0.27082292188E+02 -0.88305399750E+02  0.25224402190E+03  0.29632051711E+03  0.12509000000E+03 0.  0.
         25    1    4    4    0    0  0.16680908526E+02 -0.16198686238E+02  0.13752653483E+03  0.18735449295E+03  0.12509000000E+03 0.  0.
<mgrwt>
<rscale>  2 0.46661861E+03</rscale>
<asrwt>0</asrwt>
<pdfrwt beam="1">  1       21 0.12437139E+00 0.46661861E+03</pdfrwt>
<pdfrwt beam="2">  1       21 0.94651129E-02 0.46661861E+03</pdfrwt>
<totfact> 0.39119050E+04</totfact>
</mgrwt>
</event>
<event>
 7    0  0.4709932E-002  0.4551780E+03  0.7546771E-02  0.1026189E+00
         21   -1    0    0  502  501  0.00000000000E+00  0.00000000000E+00  0.19550570249E+03  0.19550570249E+03  0.00000000000E+00 0. -1.
         21   -1    0    0  501  502 -0.00000000000E+00 -0.00000000000E+00 -0.26493727233E+03  0.26493727233E+03  0.00000000000E+00 0. -1.
      99926    2    1    2    0    0  0.71054273576E-14  0.00000000000E+00 -0.69431569838E+02  0.46044297483E+03  0.45517797638E+03 0.  0.
      99925    2    3    3    0    0  0.35458792439E+02 -0.10059690071E+03 -0.83118152916E+02  0.29548269764E+03  0.26272482727E+03 0.  0.
         25    1    3    3    0    0 -0.35458792439E+02  0.10059690071E+03  0.13686583078E+02  0.16496027719E+03  0.12509000000E+03 0.  0.
         25    1    4    4    0    0 -0.21744723968E+02 -0.43836152873E+02 -0.47570003749E+02  0.14249510404E+03  0.12509000000E+03 0.  0.
         25    1    4    4    0    0  0.57203516406E+02 -0.56760747841E+02 -0.35548149168E+02  0.15298759359E+03  0.12509000000E+03 0.  0.
<mgrwt>
<rscale>  2 0.45517798E+03</rscale>
<asrwt>0</asrwt>
<pdfrwt beam="1">  1       21 0.28750839E-01 0.45517798E+03</pdfrwt>
<pdfrwt beam="2">  1       21 0.38961363E-01 0.45517798E+03</pdfrwt>
<totfact> 0.68051655E+04</totfact>
</mgrwt>
</event>
<event>
 7    0  0.4709932E-002  0.4536769E+03  0.7546771E-02  0.1026631E+00
         21   -1    0    0  502  501  0.00000000000E+00  0.00000000000E+00  0.87826992879E+02  0.87826992879E+02  0.00000000000E+00 0.  1.
         21   -1    0    0  501  502 -0.00000000000E+00 -0.00000000000E+00 -0.58587551461E+03  0.58587551461E+03  0.00000000000E+00 0.  1.
      99926    2    1    2    0    0  0.00000000000E+00  0.00000000000E+00 -0.49804852173E+03  0.67370250749E+03  0.45367690992E+03 0.  0.
      99925    2    3    3    0    0 -0.27559075471E+02  0.47904897696E+02 -0.45828836069E+03  0.53128495109E+03  0.26302299491E+03 0.  0.
         25    1    3    3    0    0  0.27559075471E+02 -0.47904897696E+02 -0.39760161045E+02  0.14241755640E+03  0.12509000000E+03 0.  0.
         25    1    4    4    0    0  0.12603168423E+02  0.54278737945E+02 -0.24614445641E+03  0.28167290031E+03  0.12509000000E+03 0.  0.
         25    1    4    4    0    0 -0.40162243894E+02 -0.63738402491E+01 -0.21214390428E+03  0.24961205078E+03  0.12509000000E+03 0.  0.
<mgrwt>
<rscale>  2 0.45367691E+03</rscale>
<asrwt>0</asrwt>
<pdfrwt beam="1">  1       21 0.12915734E-01 0.45367691E+03</pdfrwt>
<pdfrwt beam="2">  1       21 0.86158167E-01 0.45367691E+03</pdfrwt>
<totfact> 0.54924992E+04</totfact>
</mgrwt>
</event>
<event>
 7    0  0.4709932E-002  0.4535227E+03  0.7546771E-02  0.1026677E+00
         21   -1    0    0  502  501  0.00000000000E+00  0.00000000000E+00  0.38937238461E+03  0.38937238461E+03  0.00000000000E+00 0. -1.
         21   -1    0    0  501  502 -0.00000000000E+00 -0.00000000000E+00 -0.13206050929E+03  0.13206050929E+03  0.00000000000E+00 0. -1.
      99926    2    1    2    0    0  0.71054273576E-14  0.00000000000E+00  0.25731187532E+03  0.52143289390E+03  0.45352272453E+03 0.  0.
      99925    2    3    3    0    0 -0.43037679256E+02  0.10338502402E+03  0.16292729412E+03  0.32882795551E+03  0.26275809431E+03 0.  0.
         25    1    3    3    0    0  0.43037679256E+02 -0.10338502402E+03  0.94384581203E+02  0.19260493840E+03  0.12509000000E+03 0.  0.
         25    1    4    4    0    0 -0.43638794495E+02  0.74611651841E+02  0.11927853936E+03  0.19325144509E+03  0.12509000000E+03 0.  0.
         25    1    4    4    0    0  0.60111523969E+00  0.28773372175E+02  0.43648754756E+02  0.13557651042E+03  0.12509000000E+03 0.  0.
<mgrwt>
<rscale>  2 0.45352272E+03</rscale>
<asrwt>0</asrwt>
<pdfrwt beam="1">  1       21 0.57260644E-01 0.45352272E+03</pdfrwt>
<pdfrwt beam="2">  1       21 0.19420663E-01 0.45352272E+03</pdfrwt>
<totfact> 0.64542730E+04</totfact>
</mgrwt>
</event>
<event>
 7    0  0.4709932E-002  0.4531351E+03  0.7546771E-02  0.1026791E+00
         21   -1    0    0  502  501  0.00000000000E+00  0.00000000000E+00  0.18497426068E+02  0.18497426068E+02  0.00000000000E+00 0.  1.
         21   -1    0    0  501  502 -0.00000000000E+00 -0.00000000000E+00 -0.27751346618E+04  0.27751346618E+04  0.00000000000E+00 0.  1.
      99926    2    1    2    0    0  0.00000000000E+00  0.14210854715E-13 -0.27566372357E+04  0.27936320879E+04  0.45313507141E+03 0.  0.
      99925    2    3    3    0    0  0.75062144242E+02 -0.81058487506E+02 -0.18263382162E+04  0.18484820586E+04  0.26300159180E+03 0.  0.
         25    1    4    4    0    0  0.52954417443E+02 -0.76591003967E+02 -0.89043313023E+03  0.90398507716E+03  0.12509000000E+03 0.  0.
         25    1    4    4    0    0  0.22107726798E+02 -0.44674835395E+01 -0.93590508597E+03  0.94449698148E+03  0.12509000000E+03 0.  0.
         25    1    3    3    0    0 -0.75062144242E+02  0.81058487506E+02 -0.93029901952E+03  0.94515002921E+03  0.12509000000E+03 0.  0.
<mgrwt>
<rscale>  2 0.45313507E+03</rscale>
<asrwt>0</asrwt>
<pdfrwt beam="1">  1       21 0.27202113E-02 0.45313507E+03</pdfrwt>
<pdfrwt beam="2">  1       21 0.40810780E+00 0.45313507E+03</pdfrwt>
<totfact> 0.46369651E+03</totfact>
</mgrwt>
</event>
<event>
 7    0  0.4709932E-002  0.4546985E+03  0.7546771E-02  0.1026330E+00
         21   -1    0    0  502  501  0.00000000000E+00  0.00000000000E+00  0.33781417890E+03  0.33781417890E+03  0.00000000000E+00 0.  1.
         21   -1    0    0  501  502 -0.00000000000E+00 -0.00000000000E+00 -0.15300623831E+03  0.15300623831E+03  0.00000000000E+00 0.  1.
      99926    2    1    2    0    0  0.00000000000E+00  0.00000000000E+00  0.18480794059E+03  0.49082041721E+03  0.45469847927E+03 0.  0.
      99925    2    3    3    0    0  0.83874416387E+02 -0.35969351581E+02  0.18808405316E+03  0.33594319813E+03  0.26297054843E+03 0.  0.
         25    1    4    4    0    0  0.30976898228E+02 -0.33534638843E+01  0.46458858120E+02  0.13702827278E+03  0.12509000000E+03 0.  0.
         25    1    4    4    0    0  0.52897518158E+02 -0.32615887697E+02  0.14162519504E+03  0.19891492535E+03  0.12509000000E+03 0.  0.
         25    1    3    3    0    0 -0.83874416387E+02  0.35969351581E+02 -0.32761125634E+01  0.15487721908E+03  0.12509000000E+03 0.  0.
<mgrwt>
<rscale>  2 0.45469848E+03</rscale>
<asrwt>0</asrwt>
<pdfrwt beam="1">  1       21 0.49678556E-01 0.45469848E+03</pdfrwt>
<pdfrwt beam="2">  1       21 0.22500917E-01 0.45469848E+03</pdfrwt>
<totfact> 0.66078515E+04</totfact>
</mgrwt>
</event>
<event>
 7    0  0.4709932E-002  0.4589872E+03  0.7546771E-02  0.1025075E+00
         21   -1    0    0  502  501  0.00000000000E+00  0.00000000000E+00  0.32884726590E+03  0.32884726590E+03  0.00000000000E+00 0.  1.
         21   -1    0    0  501  502 -0.00000000000E+00 -0.00000000000E+00 -0.16015737391E+03  0.16015737391E+03  0.00000000000E+00 0.  1.
      99926    2    1    2    0    0  0.00000000000E+00 -0.44408920985E-15  0.16868989199E+03  0.48900463981E+03  0.45898720908E+03 0.  0.
      99925    2    3    3    0    0 -0.10711255526E+03  0.30833800296E+01  0.15546542704E+03  0.32376238946E+03  0.26300186140E+03 0.  0.
         25    1    4    4    0    0 -0.72117012357E+02 -0.12468147134E+02  0.42802631226E+02  0.15111549062E+03  0.12509000000E+03 0.  0.
         25    1    3    3    0    0  0.10711255526E+03 -0.30833800296E+01  0.13224464952E+02  0.16524225035E+03  0.12509000000E+03 0.  0.
         25    1    4    4    0    0 -0.34995542907E+02  0.15551527164E+02  0.11266279581E+03  0.17264689884E+03  0.12509000000E+03 0.  0.
<mgrwt>
<rscale>  2 0.45898721E+03</rscale>
<asrwt>0</asrwt>
<pdfrwt beam="1">  1       21 0.48359892E-01 0.45898721E+03</pdfrwt>
<pdfrwt beam="2">  1       21 0.23552555E-01 0.45898721E+03</pdfrwt>
<totfact> 0.64000354E+04</totfact>
</mgrwt>
</event>
<event>
 7    0  0.4709932E-002  0.4608336E+03  0.7546771E-02  0.1024540E+00
         21   -1    0    0  502  501  0.00000000000E+00  0.00000000000E+00  0.10388752725E+04  0.10388752725E+04  0.00000000000E+00 0.  1.
         21   -1    0    0  501  502 -0.00000000000E+00 -0.00000000000E+00 -0.51105184950E+02  0.51105184950E+02  0.00000000000E+00 0.  1.
      99926    2    1    2    0    0  0.14210854715E-13  0.00000000000E+00  0.98777008757E+03  0.10899804575E+04  0.46083364870E+03 0.  0.
      99925    2    3    3    0    0 -0.74674498061E+02 -0.34675311618E+02  0.82007219637E+03  0.86514996864E+03  0.26303498451E+03 0.  0.
         25    1    3    3    0    0  0.74674498061E+02  0.34675311618E+02  0.16769789120E+03  0.22483048883E+03  0.12509000000E+03 0.  0.
         25    1    4    4    0    0  0.47069378675E+01 -0.15839337934E+02  0.36406058193E+03  0.38530592431E+03  0.12509000000E+03 0.  0.
         25    1    4    4    0    0 -0.79381435929E+02 -0.18835973684E+02  0.45601161444E+03  0.47984404433E+03  0.12509000000E+03 0.  0.
<mgrwt>
<rscale>  2 0.46083365E+03</rscale>
<asrwt>0</asrwt>
<pdfrwt beam="1">  1       21 0.15277576E+00 0.46083365E+03</pdfrwt>
<pdfrwt beam="2">  1       21 0.75154690E-02 0.46083365E+03</pdfrwt>
<totfact> 0.34257670E+04</totfact>
</mgrwt>
</event>
<event>
 7    0  0.4709932E-002  0.4495737E+03  0.7546771E-02  0.1027849E+00
         21   -1    0    0  502  501  0.00000000000E+00  0.00000000000E+00  0.79303819416E+03  0.79303819416E+03  0.00000000000E+00 0.  1.
         21   -1    0    0  501  502 -0.00000000000E+00 -0.00000000000E+00 -0.63715878682E+02  0.63715878682E+02  0.00000000000E+00 0.  1.
      99926    2    1    2    0    0  0.00000000000E+00  0.71054273576E-14  0.72932231547E+03  0.85675407284E+03  0.44957368860E+03 0.  0.
      99925    2    3    3    0    0  0.35496127466E+02 -0.42858219785E+02  0.28483467029E+03  0.39165883862E+03  0.26300010343E+03 0.  0.
         25    1    4    4    0    0  0.37690651840E+01  0.16588862127E+02  0.12215863325E+03  0.17566910934E+03  0.12509000000E+03 0.  0.
         25    1    3    3    0    0 -0.35496127466E+02  0.42858219785E+02  0.44448764518E+03  0.46509523421E+03  0.12509000000E+03 0.  0.
         25    1    4    4    0    0  0.31727062282E+02 -0.59447081912E+02  0.16267603704E+03  0.21598972928E+03  0.12509000000E+03 0.  0.
<mgrwt>
<rscale>  2 0.44957369E+03</rscale>
<asrwt>0</asrwt>
<pdfrwt beam="1">  1       21 0.11662326E+00 0.44957369E+03</pdfrwt>
<pdfrwt beam="2">  1       21 0.93699826E-02 0.44957369E+03</pdfrwt>
<totfact> 0.47112163E+04</totfact>
</mgrwt>
</event>
<event>
 7    0  0.4709932E-002  0.4591668E+03  0.7546771E-02  0.1025023E+00
         21   -1    0    0  502  501  0.00000000000E+00  0.00000000000E+00  0.33614226592E+03  0.33614226592E+03  0.00000000000E+00 0.  1.
         21   -1    0    0  501  502 -0.00000000000E+00 -0.00000000000E+00 -0.15680424398E+03  0.15680424398E+03  0.00000000000E+00 0.  1.
      99926    2    1    2    0    0  0.00000000000E+00 -0.71054273576E-14  0.17933802194E+03  0.49294650990E+03  0.45916678398E+03 0.  0.
      99925    2    3    3    0    0 -0.69919102052E+02 -0.59799479452E+02  0.33923146324E+02  0.28020804905E+03  0.26249021376E+03 0.  0.
         25    1    4    4    0    0 -0.58652055605E+02 -0.47201996748E+02  0.46825091455E+02  0.15332380576E+03  0.12509000000E+03 0.  0.
         25    1    3    3    0    0  0.69919102052E+02  0.59799479452E+02  0.14541487561E+03  0.21273846085E+03  0.12509000000E+03 0.  0.
         25    1    4    4    0    0 -0.11267046446E+02 -0.12597482704E+02 -0.12901945131E+02  0.12688424329E+03  0.12509000000E+03 0.  0.
<mgrwt>
<rscale>  2 0.45916678E+03</rscale>
<asrwt>0</asrwt>
<pdfrwt beam="1">  1       21 0.49432686E-01 0.45916678E+03</pdfrwt>
<pdfrwt beam="2">  1       21 0.23059448E-01 0.45916678E+03</pdfrwt>
<totfact> 0.63637830E+04</totfact>
</mgrwt>
</event>
<event>
 7    0  0.4709932E-002  0.4564637E+03  0.7546771E-02  0.1025812E+00
         21   -1    0    0  502  501  0.00000000000E+00  0.00000000000E+00  0.39175543831E+03  0.39175543831E+03  0.00000000000E+00 0. -1.
         21   -1    0    0  501  502 -0.00000000000E+00 -0.00000000000E+00 -0.13296501796E+03  0.13296501796E+03  0.00000000000E+00 0. -1.
      99926    2    1    2    0    0  0.00000000000E+00 -0.35527136788E-14  0.25879042034E+03  0.52472045627E+03  0.45646366292E+03 0.  0.
      99925    2    3    3    0    0 -0.90487051739E+02 -0.31859361131E+02  0.23447926680E+03  0.36521664531E+03  0.26305844603E+03 0.  0.
         25    1    4    4    0    0 -0.59292454220E+02 -0.56376408957E+01  0.16817045789E+03  0.21789031445E+03  0.12509000000E+03 0.  0.
         25    1    4    4    0    0 -0.31194597519E+02 -0.26221720236E+02  0.66308808908E+02  0.14732633086E+03  0.12509000000E+03 0.  0.
         25    1    3    3    0    0  0.90487051739E+02  0.31859361131E+02  0.24311153546E+02  0.15950381096E+03  0.12509000000E+03 0.  0.
<mgrwt>
<rscale>  2 0.45646366E+03</rscale>
<asrwt>0</asrwt>
<pdfrwt beam="1">  1       21 0.57611093E-01 0.45646366E+03</pdfrwt>
<pdfrwt beam="2">  1       21 0.19553679E-01 0.45646366E+03</pdfrwt>
<totfact> 0.62833070E+04</totfact>
</mgrwt>
</event>
<event>
 7    0  0.4709932E-002  0.4584252E+03  0.7546771E-02  0.1025239E+00
         21   -1    0    0  502  501  0.00000000000E+00  0.00000000000E+00  0.40300377478E+03  0.40300377478E+03  0.00000000000E+00 0.  1.
         21   -1    0    0  501  502 -0.00000000000E+00 -0.00000000000E+00 -0.13036705233E+03  0.13036705233E+03  0.00000000000E+00 0.  1.
      99926    2    1    2    0    0  0.17763568394E-14  0.14210854715E-13  0.27263672245E+03  0.53337082710E+03  0.45842519213E+03 0.  0.
      99925    2    3    3    0    0  0.98623570676E+01  0.10535816861E+03  0.22739572660E+03  0.36339475354E+03  0.26296258411E+03 0.  0.
         25    1    4    4    0    0  0.27963254077E+02  0.42462735289E+02  0.70471704340E+02  0.15231151197E+03  0.12509000000E+03 0.  0.
         25    1    4    4    0    0 -0.18100897010E+02  0.62895433325E+02  0.15692402226E+03  0.21108324156E+03  0.12509000000E+03 0.  0.
         25    1    3    3    0    0 -0.98623570676E+01 -0.10535816861E+03  0.45240995845E+02  0.16997607357E+03  0.12509000000E+03 0.  0.
<mgrwt>
<rscale>  2 0.45842519E+03</rscale>
<asrwt>0</asrwt>
<pdfrwt beam="1">  1       21 0.59265260E-01 0.45842519E+03</pdfrwt>
<pdfrwt beam="2">  1       21 0.19171626E-01 0.45842519E+03</pdfrwt>
<totfact> 0.61297869E+04</totfact>
</mgrwt>
</event>
<event>
 7    0  0.4709932E-002  0.4553944E+03  0.7546771E-02  0.1026125E+00
         21   -1    0    0  502  501  0.00000000000E+00  0.00000000000E+00  0.69335000634E+03  0.69335000634E+03  0.00000000000E+00 0.  1.
         21   -1    0    0  501  502 -0.00000000000E+00 -0.00000000000E+00 -0.74776106948E+02  0.74776106948E+02  0.00000000000E+00 0.  1.
      99926    2    1    2    0    0 -0.14210854715E-13 -0.71054273576E-14  0.61857389939E+03  0.76812611329E+03  0.45539439710E+03 0.  0.
      99925    2    3    3    0    0 -0.93881658108E+02 -0.41729039301E+02  0.47069849113E+03  0.54887802796E+03  0.26297327161E+03 0.  0.
         25    1    4    4    0    0 -0.21028429012E+02  0.23670716440E+01  0.16863006726E+03  0.21102465624E+03  0.12509000000E+03 0.  0.
         25    1    3    3    0    0  0.93881658108E+02  0.41729039301E+02  0.14787540827E+03  0.21924808533E+03  0.12509000000E+03 0.  0.
         25    1    4    4    0    0 -0.72853229096E+02 -0.44096110945E+02  0.30206842386E+03  0.33785337172E+03  0.12509000000E+03 0.  0.
<mgrwt>
<rscale>  2 0.45539440E+03</rscale>
<asrwt>0</asrwt>
<pdfrwt beam="1">  1       21 0.10196323E+00 0.45539440E+03</pdfrwt>
<pdfrwt beam="2">  1       21 0.10996487E-01 0.45539440E+03</pdfrwt>
<totfact> 0.49192570E+04</totfact>
</mgrwt>
</event>
<event>
 7    0  0.4709932E-002  0.4596084E+03  0.7546771E-02  0.1024895E+00
         21   -1    0    0  502  501  0.00000000000E+00  0.00000000000E+00  0.58389311970E+03  0.58389311970E+03  0.00000000000E+00 0.  1.
         21   -1    0    0  501  502 -0.00000000000E+00 -0.00000000000E+00 -0.90444597048E+02  0.90444597048E+02  0.00000000000E+00 0.  1.
      99926    2    1    2    0    0 -0.14210854715E-13 -0.14210854715E-13  0.49344852265E+03  0.67433771675E+03  0.45960843304E+03 0.  0.
      99925    2    3    3    0    0 -0.92213934720E+02 -0.72737319702E+02  0.30757519347E+03  0.42137422129E+03  0.26298214254E+03 0.  0.
         25    1    3    3    0    0  0.92213934720E+02  0.72737319702E+02  0.18587332918E+03  0.25296349546E+03  0.12509000000E+03 0.  0.
         25    1    4    4    0    0 -0.72123959625E+02 -0.66949007479E+02  0.14610032979E+03  0.21604825762E+03  0.12509000000E+03 0.  0.
         25    1    4    4    0    0 -0.20089975095E+02 -0.57883122226E+01  0.16147486368E+03  0.20532596367E+03  0.12509000000E+03 0.  0.
<mgrwt>
<rscale>  2 0.45960843E+03</rscale>
<asrwt>0</asrwt>
<pdfrwt beam="1">  1       21 0.85866634E-01 0.45960843E+03</pdfrwt>
<pdfrwt beam="2">  1       21 0.13300676E-01 0.45960843E+03</pdfrwt>
<totfact> 0.52389738E+04</totfact>
</mgrwt>
</event>
<event>
 7    0  0.4709932E-002  0.4630857E+03  0.7546771E-02  0.1023890E+00
         21   -1    0    0  502  501  0.00000000000E+00  0.00000000000E+00  0.10429036194E+03  0.10429036194E+03  0.00000000000E+00 0.  1.
         21   -1    0    0  501  502 -0.00000000000E+00 -0.00000000000E+00 -0.51406572578E+03  0.51406572578E+03  0.00000000000E+00 0.  1.
      99926    2    1    2    0    0 -0.71054273576E-14  0.00000000000E+00 -0.40977536384E+03  0.61835608772E+03  0.46308573980E+03 0.  0.
      99925    2    3    3    0    0  0.56605318913E+02 -0.87273492988E+02 -0.17450599820E+03  0.33231412014E+03  0.26298195057E+03 0.  0.
         25    1    3    3    0    0 -0.56605318913E+02  0.87273492988E+02 -0.23526936564E+03  0.28604196758E+03  0.12509000000E+03 0.  0.
         25    1    4    4    0    0  0.36440731828E+02 -0.19760510858E+02 -0.12158776904E+03  0.17930281204E+03  0.12509000000E+03 0.  0.
         25    1    4    4    0    0  0.20164587085E+02 -0.67512982130E+02 -0.52918229163E+02  0.15301130810E+03  0.12509000000E+03 0.  0.
<mgrwt>
<rscale>  2 0.46308574E+03</rscale>
<asrwt>0</asrwt>
<pdfrwt beam="1">  1       21 0.15336818E-01 0.46308574E+03</pdfrwt>
<pdfrwt beam="2">  1       21 0.75597901E-01 0.46308574E+03</pdfrwt>
<totfact> 0.54028803E+04</totfact>
</mgrwt>
</event>
<event>
 7    0  0.4709932E-002  0.4048396E+03  0.7546771E-02  0.1042117E+00
         21   -1    0    0  502  501  0.00000000000E+00  0.00000000000E+00  0.70797747109E+03  0.70797747109E+03  0.00000000000E+00 0.  1.
         21   -1    0    0  501  502 -0.00000000000E+00 -0.00000000000E+00 -0.57874394583E+02  0.57874394583E+02  0.00000000000E+00 0.  1.
      99926    2    1    2    0    0 -0.71054273576E-14  0.00000000000E+00  0.65010307651E+03  0.76585186568E+03  0.40483956090E+03 0.  0.
      99925    2    3    3    0    0  0.34884183504E+02 -0.41414423428E+02  0.43557315719E+03  0.51168134199E+03  0.26298623491E+03 0.  0.
         25    1    4    4    0    0  0.44018764144E+02 -0.19891297541E+02  0.16453901710E+03  0.21225906709E+03  0.12509000000E+03 0.  0.
         25    1    4    4    0    0 -0.91345806404E+01 -0.21523125887E+02  0.27103414009E+03  0.29942227490E+03  0.12509000000E+03 0.  0.
         25    1    3    3    0    0 -0.34884183504E+02  0.41414423428E+02  0.21452991932E+03  0.25417052368E+03  0.12509000000E+03 0.  0.
<mgrwt>
<rscale>  2 0.40483956E+03</rscale>
<asrwt>0</asrwt>
<pdfrwt beam="1">  1       21 0.10411433E+00 0.40483956E+03</pdfrwt>
<pdfrwt beam="2">  1       21 0.85109408E-02 0.40483956E+03</pdfrwt>
<totfact> 0.74872968E+04</totfact>
</mgrwt>
</event>
<event>
 7    0  0.4709932E-002  0.4925967E+03  0.7546771E-02  0.1015730E+00
         21   -1    0    0  502  501  0.00000000000E+00  0.00000000000E+00  0.24660923098E+03  0.24660923098E+03  0.00000000000E+00 0. -1.
         21   -1    0    0  501  502 -0.00000000000E+00 -0.00000000000E+00 -0.24598783017E+03  0.24598783017E+03  0.00000000000E+00 0. -1.
      99926    2    1    2    0    0  0.14210854715E-13 -0.14210854715E-13  0.62140080618E+00  0.49259706115E+03  0.49259666921E+03 0.  0.
      99925    2    3    3    0    0 -0.12132357405E+03  0.77802387070E+02 -0.20099997596E+02  0.30063481094E+03  0.26306778327E+03 0.  0.
         25    1    4    4    0    0 -0.64245919720E+02  0.10007661106E+02  0.19446177112E+02  0.14231427682E+03  0.12509000000E+03 0.  0.
         25    1    3    3    0    0  0.12132357405E+03 -0.77802387070E+02  0.20721398402E+02  0.19196225021E+03  0.12509000000E+03 0.  0.
         25    1    4    4    0    0 -0.57077654328E+02  0.67794725964E+02 -0.39546174709E+02  0.15832053413E+03  0.12509000000E+03 0.  0.
<mgrwt>
<rscale>  2 0.49259667E+03</rscale>
<asrwt>0</asrwt>
<pdfrwt beam="1">  1       21 0.36266064E-01 0.49259667E+03</pdfrwt>
<pdfrwt beam="2">  1       21 0.36174681E-01 0.49259667E+03</pdfrwt>
<totfact> 0.49330879E+04</totfact>
</mgrwt>
</event>
<event>
 7    0  0.4709932E-002  0.4550372E+03  0.7546771E-02  0.1026230E+00
         21   -1    0    0  502  501  0.00000000000E+00  0.00000000000E+00  0.11420356180E+03  0.11420356180E+03  0.00000000000E+00 0.  1.
         21   -1    0    0  501  502 -0.00000000000E+00 -0.00000000000E+00 -0.45326712687E+03  0.45326712687E+03  0.00000000000E+00 0.  1.
      99926    2    1    2    0    0 -0.71054273576E-14  0.14210854715E-13 -0.33906356507E+03  0.56747068867E+03  0.45503723073E+03 0.  0.
      99925    2    3    3    0    0  0.58687732796E+02 -0.86567392893E+02 -0.26728090833E+03  0.38931788515E+03  0.26304214159E+03 0.  0.
         25    1    4    4    0    0  0.57187295214E+02 -0.24255487560E+02 -0.16474592703E+03  0.21598019350E+03  0.12509000000E+03 0.  0.
         25    1    4    4    0    0  0.15004375828E+01 -0.62311905333E+02 -0.10253498130E+03  0.17333769166E+03  0.12509000000E+03 0.  0.
         25    1    3    3    0    0 -0.58687732796E+02  0.86567392893E+02 -0.71782656743E+02  0.17815280352E+03  0.12509000000E+03 0.  0.
<mgrwt>
<rscale>  2 0.45503723E+03</rscale>
<asrwt>0</asrwt>
<pdfrwt beam="1">  1       21 0.16794641E-01 0.45503723E+03</pdfrwt>
<pdfrwt beam="2">  1       21 0.66656930E-01 0.45503723E+03</pdfrwt>
<totfact> 0.60708708E+04</totfact>
</mgrwt>
</event>
<event>
 7    0  0.4709932E-002  0.4614699E+03  0.7546771E-02  0.1024356E+00
         21   -1    0    0  502  501  0.00000000000E+00  0.00000000000E+00  0.27114278944E+03  0.27114278944E+03  0.00000000000E+00 0.  1.
         21   -1    0    0  501  502 -0.00000000000E+00 -0.00000000000E+00 -0.19634900864E+03  0.19634900864E+03  0.00000000000E+00 0.  1.
      99926    2    1    2    0    0  0.00000000000E+00  0.00000000000E+00  0.74793780798E+02  0.46749179808E+03  0.46146990327E+03 0.  0.
      99925    2    3    3    0    0  0.63855510845E+02  0.10049296507E+03  0.40203304284E+02  0.29136578791E+03  0.26287136472E+03 0.  0.
         25    1    4    4    0    0  0.94750052888E+00  0.73789999519E+02  0.31142615930E+02  0.14853697322E+03  0.12509000000E+03 0.  0.
         25    1    3    3    0    0 -0.63855510845E+02 -0.10049296507E+03  0.34590476514E+02  0.17612601018E+03  0.12509000000E+03 0.  0.
         25    1    4    4    0    0  0.62908010316E+02  0.26702965555E+02  0.90606883538E+01  0.14282881469E+03  0.12509000000E+03 0.  0.
<mgrwt>
<rscale>  2 0.46146990E+03</rscale>
<asrwt>0</asrwt>
<pdfrwt beam="1">  1       21 0.39873939E-01 0.46146990E+03</pdfrwt>
<pdfrwt beam="2">  1       21 0.28874854E-01 0.46146990E+03</pdfrwt>
<totfact> 0.64256568E+04</totfact>
</mgrwt>
</event>
<event>
 7    0  0.4709932E-002  0.4173359E+03  0.7546771E-02  0.1037937E+00
         21   -1    0    0  502  501  0.00000000000E+00  0.00000000000E+00  0.13257797999E+03  0.13257797999E+03  0.00000000000E+00 0. -1.
         21   -1    0    0  501  502 -0.00000000000E+00 -0.00000000000E+00 -0.32842791715E+03  0.32842791715E+03  0.00000000000E+00 0. -1.
      99926    2    1    2    0    0 -0.71054273576E-14  0.00000000000E+00 -0.19584993716E+03  0.46100589714E+03  0.41733588309E+03 0.  0.
      99925    2    3    3    0    0 -0.61437408060E+02  0.25240812195E+02 -0.96458459990E+02  0.28798038589E+03  0.26309088628E+03 0.  0.
         25    1    3    3    0    0  0.61437408060E+02 -0.25240812195E+02 -0.99391477174E+02  0.17302551125E+03  0.12509000000E+03 0.  0.
         25    1    4    4    0    0 -0.67675948149E+02  0.26730019652E+02 -0.66124549640E+02  0.15910528613E+03  0.12509000000E+03 0.  0.
         25    1    4    4    0    0  0.62385400893E+01 -0.14892074563E+01 -0.30333910350E+02  0.12887509976E+03  0.12509000000E+03 0.  0.
<mgrwt>
<rscale>  2 0.41733588E+03</rscale>
<asrwt>0</asrwt>
<pdfrwt beam="1">  1       21 0.19496762E-01 0.41733588E+03</pdfrwt>
<pdfrwt beam="2">  1       21 0.48298222E-01 0.41733588E+03</pdfrwt>
<totfact> 0.92938208E+04</totfact>
</mgrwt>
</event>
<event>
 7    0  0.4709932E-002  0.4553296E+03  0.7546771E-02  0.1026145E+00
         21   -1    0    0  502  501  0.00000000000E+00  0.00000000000E+00  0.69261877302E+02  0.69261877302E+02  0.00000000000E+00 0.  1.
         21   -1    0    0  501  502 -0.00000000000E+00 -0.00000000000E+00 -0.74833746849E+03  0.74833746849E+03  0.00000000000E+00 0.  1.
      99926    2    1    2    0    0  0.00000000000E+00 -0.14210854715E-13 -0.67907559119E+03  0.81759934579E+03  0.45532958579E+03 0.  0.
      99925    2    3    3    0    0  0.79554779970E+02  0.78122698100E+02 -0.38961264815E+03  0.48313197449E+03  0.26303302112E+03 0.  0.
         25    1    3    3    0    0 -0.79554779970E+02 -0.78122698100E+02 -0.28946294304E+03  0.33446737130E+03  0.12509000000E+03 0.  0.
         25    1    4    4    0    0  0.81715036215E+02  0.42131510594E+02 -0.22224537335E+03  0.27109578640E+03  0.12509000000E+03 0.  0.
         25    1    4    4    0    0 -0.21602562453E+01  0.35991187506E+02 -0.16736727480E+03  0.21203618809E+03  0.12509000000E+03 0.  0.
<mgrwt>
<rscale>  2 0.45532959E+03</rscale>
<asrwt>0</asrwt>
<pdfrwt beam="1">  1       21 0.10185570E-01 0.45532959E+03</pdfrwt>
<pdfrwt beam="2">  1       21 0.11004963E+00 0.45532959E+03</pdfrwt>
<totfact> 0.46804147E+04</totfact>
</mgrwt>
</event>
<event>
 7    0  0.4709932E-002  0.4569107E+03  0.7546771E-02  0.1025681E+00
         21   -1    0    0  502  501  0.00000000000E+00  0.00000000000E+00  0.13349906705E+03  0.13349906705E+03  0.00000000000E+00 0.  1.
         21   -1    0    0  501  502 -0.00000000000E+00 -0.00000000000E+00 -0.39095292418E+03  0.39095292418E+03  0.00000000000E+00 0.  1.
      99926    2    1    2    0    0  0.00000000000E+00 -0.14210854715E-13 -0.25745385713E+03  0.52445199122E+03  0.45691071617E+03 0.  0.
      99925    2    3    3    0    0 -0.68666705392E+02 -0.65736771416E+02 -0.87650340558E+02  0.29311418220E+03  0.26305304039E+03 0.  0.
         25    1    3    3    0    0  0.68666705392E+02  0.65736771416E+02 -0.16980351657E+03  0.23133780903E+03  0.12509000000E+03 0.  0.
         25    1    4    4    0    0 -0.47122118948E+02 -0.15432862260E+02 -0.79600698345E+02  0.15634080276E+03  0.12509000000E+03 0.  0.
         25    1    4    4    0    0 -0.21544586444E+02 -0.50303909156E+02 -0.80496422129E+01  0.13677337943E+03  0.12509000000E+03 0.  0.
<mgrwt>
<rscale>  2 0.45691072E+03</rscale>
<asrwt>0</asrwt>
<pdfrwt beam="1">  1       21 0.19632216E-01 0.45691072E+03</pdfrwt>
<pdfrwt beam="2">  1       21 0.57493077E-01 0.45691072E+03</pdfrwt>
<totfact> 0.62629548E+04</totfact>
</mgrwt>
</event>
<event>
 7    0  0.4709932E-002  0.4562139E+03  0.7546771E-02  0.1025885E+00
         21   -1    0    0  502  501  0.00000000000E+00  0.00000000000E+00  0.56879204170E+03  0.56879204170E+03  0.00000000000E+00 0.  1.
         21   -1    0    0  501  502 -0.00000000000E+00 -0.00000000000E+00 -0.91479460440E+02  0.91479460440E+02  0.00000000000E+00 0.  1.
      99926    2    1    2    0    0 -0.14210854715E-13  0.14210854715E-13  0.47731258126E+03  0.66027150213E+03  0.45621393699E+03 0.  0.
      99925    2    3    3    0    0 -0.65275384266E+02  0.92439366253E+02  0.27766821036E+03  0.39890720627E+03  0.26309962361E+03 0.  0.
         25    1    3    3    0    0  0.65275384266E+02 -0.92439366253E+02  0.19964437089E+03  0.26136429586E+03  0.12509000000E+03 0.  0.
         25    1    4    4    0    0  0.29705083300E+01  0.22620505648E+02  0.13607725976E+03  0.18623920081E+03  0.12509000000E+03 0.  0.
         25    1    4    4    0    0 -0.68245892596E+02  0.69818860605E+02  0.14159095061E+03  0.21266800546E+03  0.12509000000E+03 0.  0.
<mgrwt>
<rscale>  2 0.45621394E+03</rscale>
<asrwt>0</asrwt>
<pdfrwt beam="1">  1       21 0.83645887E-01 0.45621394E+03</pdfrwt>
<pdfrwt beam="2">  1       21 0.13452862E-01 0.45621394E+03</pdfrwt>
<totfact> 0.54588712E+04</totfact>
</mgrwt>
</event>
<event>
 7    0  0.4709932E-002  0.4456615E+03  0.7546771E-02  0.1029024E+00
         21   -1    0    0  502  501  0.00000000000E+00  0.00000000000E+00  0.17002536686E+03  0.17002536686E+03  0.00000000000E+00 0.  1.
         21   -1    0    0  501  502 -0.00000000000E+00 -0.00000000000E+00 -0.29203609918E+03  0.29203609918E+03  0.00000000000E+00 0.  1.
      99926    2    1    2    0    0  0.00000000000E+00  0.71054273576E-14 -0.12201073232E+03  0.46206146604E+03  0.44566150787E+03 0.  0.
      99925    2    3    3    0    0 -0.77626137776E+02  0.62753017067E+02 -0.10840793770E+03  0.30144919210E+03  0.26297447794E+03 0.  0.
         25    1    4    4    0    0 -0.53420880375E+02  0.53283851452E+02 -0.23286557679E+02  0.14792812834E+03  0.12509000000E+03 0.  0.
         25    1    4    4    0    0 -0.24205257401E+02  0.94691656142E+01 -0.85121380017E+02  0.15352106376E+03  0.12509000000E+03 0.  0.
         25    1    3    3    0    0  0.77626137776E+02 -0.62753017067E+02 -0.13602794625E+02  0.16061227394E+03  0.12509000000E+03 0.  0.
<mgrwt>
<rscale>  2 0.44566151E+03</rscale>
<asrwt>0</asrwt>
<pdfrwt beam="1">  1       21 0.25003731E-01 0.44566151E+03</pdfrwt>
<pdfrwt beam="2">  1       21 0.42946485E-01 0.44566151E+03</pdfrwt>
<totfact> 0.73313127E+04</totfact>
</mgrwt>
</event>
<event>
 7    0  0.4709932E-002  0.4529032E+03  0.7546771E-02  0.1026860E+00
         21   -1    0    0  502  501  0.00000000000E+00  0.00000000000E+00  0.24361704803E+02  0.24361704803E+02  0.00000000000E+00 0.  1.
         21   -1    0    0  501  502 -0.00000000000E+00 -0.00000000000E+00 -0.21049562387E+04  0.21049562387E+04  0.00000000000E+00 0.  1.
      99926    2    1    2    0    0  0.00000000000E+00  0.00000000000E+00 -0.20805945339E+04  0.21293179435E+04  0.45290317955E+03 0.  0.
      99925    2    3    3    0    0 -0.24666164143E+02  0.75613537386E+02 -0.16770875300E+04  0.16994444308E+04  0.26298852288E+03 0.  0.
         25    1    4    4    0    0 -0.10136085345E+02  0.30413020375E+02 -0.57837819061E+03  0.59261836920E+03  0.12509000000E+03 0.  0.
         25    1    4    4    0    0 -0.14530078798E+02  0.45200517010E+02 -0.10987093394E+04  0.11068260616E+04  0.12509000000E+03 0.  0.
         25    1    3    3    0    0  0.24666164143E+02 -0.75613537386E+02 -0.40350700387E+03  0.42987351274E+03  0.12509000000E+03 0.  0.
<mgrwt>
<rscale>  2 0.45290318E+03</rscale>
<asrwt>0</asrwt>
<pdfrwt beam="1">  1       21 0.35826014E-02 0.45290318E+03</pdfrwt>
<pdfrwt beam="2">  1       21 0.30955258E+00 0.45290318E+03</pdfrwt>
<totfact> 0.11903674E+04</totfact>
</mgrwt>
</event>
<event>
 7    0  0.4709932E-002  0.4505283E+03  0.7546771E-02  0.1027565E+00
         21   -1    0    0  502  501  0.00000000000E+00  0.00000000000E+00  0.56230644458E+02  0.56230644458E+02  0.00000000000E+00 0. -1.
         21   -1    0    0  501  502 -0.00000000000E+00 -0.00000000000E+00 -0.90242504014E+03  0.90242504014E+03  0.00000000000E+00 0. -1.
      99926    2    1    2    0    0  0.00000000000E+00  0.00000000000E+00 -0.84619439568E+03  0.95865568460E+03  0.45052831912E+03 0.  0.
      99925    2    3    3    0    0  0.74672996214E+02 -0.36916610793E+02 -0.38556786453E+03  0.47413199909E+03  0.26305832412E+03 0.  0.
         25    1    4    4    0    0  0.17549696375E+02 -0.50480479928E+02 -0.21771968686E+03  0.25672093963E+03  0.12509000000E+03 0.  0.
         25    1    4    4    0    0  0.57123299839E+02  0.13563869136E+02 -0.16784817767E+03  0.21741105947E+03  0.12509000000E+03 0.  0.
         25    1    3    3    0    0 -0.74672996214E+02  0.36916610793E+02 -0.46062653115E+03  0.48452368551E+03  0.12509000000E+03 0.  0.
<mgrwt>
<rscale>  2 0.45052832E+03</rscale>
<asrwt>0</asrwt>
<pdfrwt beam="1">  1       21 0.82692133E-02 0.45052832E+03</pdfrwt>
<pdfrwt beam="2">  1       21 0.13270955E+00 0.45052832E+03</pdfrwt>
<totfact> 0.42250316E+04</totfact>
</mgrwt>
</event>
<event>
 7    0  0.4709932E-002  0.4706883E+03  0.7546771E-02  0.1021726E+00
         21   -1    0    0  502  501  0.00000000000E+00  0.00000000000E+00  0.85430924490E+02  0.85430924490E+02  0.00000000000E+00 0.  1.
         21   -1    0    0  501  502 -0.00000000000E+00 -0.00000000000E+00 -0.64832343677E+03  0.64832343677E+03  0.00000000000E+00 0.  1.
      99926    2    1    2    0    0  0.00000000000E+00  0.00000000000E+00 -0.56289251228E+03  0.73375436126E+03  0.47068830694E+03 0.  0.
      99925    2    3    3    0    0 -0.10714493392E+03  0.61777383762E+02 -0.39681175849E+03  0.49183121873E+03  0.26294846270E+03 0.  0.
         25    1    4    4    0    0 -0.51980798190E+02  0.71239578125E+02 -0.19504673624E+03  0.24792704227E+03  0.12509000000E+03 0.  0.
         25    1    4    4    0    0 -0.55164135733E+02 -0.94621943626E+01 -0.20176502225E+03  0.24390417646E+03  0.12509000000E+03 0.  0.
         25    1    3    3    0    0  0.10714493392E+03 -0.61777383762E+02 -0.16608075380E+03  0.24192314253E+03  0.12509000000E+03 0.  0.
<mgrwt>
<rscale>  2 0.47068831E+03</rscale>
<asrwt>0</asrwt>
<pdfrwt beam="1">  1       21 0.12563371E-01 0.47068831E+03</pdfrwt>
<pdfrwt beam="2">  1       21 0.95341683E-01 0.47068831E+03</pdfrwt>
<totfact> 0.45261188E+04</totfact>
</mgrwt>
</event>
<event>
 7    0  0.4709932E-002  0.4486324E+03  0.7546771E-02  0.1028131E+00
         21   -1    0    0  502  501  0.00000000000E+00  0.00000000000E+00  0.20460445426E+03  0.20460445426E+03  0.00000000000E+00 0. -1.
         21   -1    0    0  501  502 -0.00000000000E+00 -0.00000000000E+00 -0.24592700125E+03  0.24592700125E+03  0.00000000000E+00 0. -1.
      99926    2    1    2    0    0  0.00000000000E+00  0.00000000000E+00 -0.41322546996E+02  0.45053145551E+03  0.44863241023E+03 0.  0.
      99925    2    3    3    0    0 -0.86670214121E+02  0.32041520930E+02  0.28191365879E+02  0.28018452345E+03  0.26300233647E+03 0.  0.
         25    1    4    4    0    0 -0.73352337943E+02 -0.10859585723E+02  0.22540810654E+02  0.14715329534E+03  0.12509000000E+03 0.  0.
         25    1    4    4    0    0 -0.13317876178E+02  0.42901106654E+02  0.56505552258E+01  0.13303122811E+03  0.12509000000E+03 0.  0.
         25    1    3    3    0    0  0.86670214121E+02 -0.32041520930E+02 -0.69513912876E+02  0.17034693206E+03  0.12509000000E+03 0.  0.
<mgrwt>
<rscale>  2 0.44863241E+03</rscale>
<asrwt>0</asrwt>
<pdfrwt beam="1">  1       21 0.30088890E-01 0.44863241E+03</pdfrwt>
<pdfrwt beam="2">  1       21 0.36165735E-01 0.44863241E+03</pdfrwt>
<totfact> 0.72487711E+04</totfact>
</mgrwt>
</event>
<event>
 7    0  0.4709932E-002  0.4591178E+03  0.7546771E-02  0.1025037E+00
         21   -1    0    0  502  501  0.00000000000E+00  0.00000000000E+00  0.23738901651E+03  0.23738901651E+03  0.00000000000E+00 0.  1.
         21   -1    0    0  501  502 -0.00000000000E+00 -0.00000000000E+00 -0.22198704446E+03  0.22198704446E+03  0.00000000000E+00 0.  1.
      99926    2    1    2    0    0  0.14210854715E-13 -0.17763568394E-14  0.15401972051E+02  0.45937606098E+03  0.45911778952E+03 0.  0.
      99925    2    3    3    0    0 -0.11339819788E+03  0.14992451242E+02  0.34414556015E+02  0.28880961843E+03  0.26295001265E+03 0.  0.
         25    1    4    4    0    0 -0.90121355553E+02  0.28148725922E+02  0.15075103026E+01  0.15672903428E+03  0.12509000000E+03 0.  0.
         25    1    4    4    0    0 -0.23276842325E+02 -0.13156274679E+02  0.32907045713E+02  0.13208058415E+03  0.12509000000E+03 0.  0.
         25    1    3    3    0    0  0.11339819788E+03 -0.14992451242E+02 -0.19012583964E+02  0.17056644255E+03  0.12509000000E+03 0.  0.
<mgrwt>
<rscale>  2 0.45911779E+03</rscale>
<asrwt>0</asrwt>
<pdfrwt beam="1">  1       21 0.34910149E-01 0.45911779E+03</pdfrwt>
<pdfrwt beam="2">  1       21 0.32645154E-01 0.45911779E+03</pdfrwt>
<totfact> 0.66030135E+04</totfact>
</mgrwt>
</event>
<event>
 7    0  0.4709932E-002  0.4469185E+03  0.7546771E-02  0.1028645E+00
         21   -1    0    0  502  501  0.00000000000E+00  0.00000000000E+00  0.12248555344E+04  0.12248555344E+04  0.00000000000E+00 0.  1.
         21   -1    0    0  501  502 -0.00000000000E+00 -0.00000000000E+00 -0.40767288638E+02  0.40767288638E+02  0.00000000000E+00 0.  1.
      99926    2    1    2    0    0  0.00000000000E+00 -0.14210854715E-13  0.11840882458E+04  0.12656228231E+04  0.44691851209E+03 0.  0.
      99925    2    3    3    0    0  0.37037869342E+02 -0.64940555666E+02  0.96114321468E+03  0.99927516580E+03  0.26299334273E+03 0.  0.
         25    1    3    3    0    0 -0.37037869342E+02  0.64940555666E+02  0.22294503112E+03  0.26634765728E+03  0.12509000000E+03 0.  0.
         25    1    4    4    0    0  0.30771134626E+02 -0.64531548306E+02  0.59903319682E+03  0.61611643579E+03  0.12509000000E+03 0.  0.
         25    1    4    4    0    0  0.62667347165E+01 -0.40900736008E+00  0.36211001786E+03  0.38315873001E+03  0.12509000000E+03 0.  0.
<mgrwt>
<rscale>  2 0.44691851E+03</rscale>
<asrwt>0</asrwt>
<pdfrwt beam="1">  1       21 0.18012579E+00 0.44691851E+03</pdfrwt>
<pdfrwt beam="2">  1       21 0.59951903E-02 0.44691851E+03</pdfrwt>
<totfact> 0.32101171E+04</totfact>
</mgrwt>
</event>
<event>
 7    0  0.4709932E-002  0.4523659E+03  0.7546771E-02  0.1027019E+00
         21   -1    0    0  502  501  0.00000000000E+00  0.00000000000E+00  0.69196520083E+03  0.69196520083E+03  0.00000000000E+00 0.  1.
         21   -1    0    0  501  502 -0.00000000000E+00 -0.00000000000E+00 -0.73932500617E+02  0.73932500617E+02  0.00000000000E+00 0.  1.
      99926    2    1    2    0    0  0.00000000000E+00  0.00000000000E+00  0.61803270021E+03  0.76589770144E+03  0.45236585918E+03 0.  0.
      99925    2    3    3    0    0  0.94016423553E+02  0.49133562234E+02  0.44182082702E+03  0.52516688250E+03  0.26332758392E+03 0.  0.
         25    1    3    3    0    0 -0.94016423553E+02 -0.49133562234E+02  0.17621187319E+03  0.24073081894E+03  0.12509000000E+03 0.  0.
         25    1    4    4    0    0  0.21256795820E+02  0.38314109479E+02  0.26601529220E+03  0.29720610044E+03  0.12509000000E+03 0.  0.
         25    1    4    4    0    0  0.72759627733E+02  0.10819452755E+02  0.17580553482E+03  0.22796078206E+03  0.12509000000E+03 0.  0.
<mgrwt>
<rscale>  2 0.45236586E+03</rscale>
<asrwt>0</asrwt>
<pdfrwt beam="1">  1       21 0.10175958E+00 0.45236586E+03</pdfrwt>
<pdfrwt beam="2">  1       21 0.10872427E-01 0.45236586E+03</pdfrwt>
<totfact> 0.50494501E+04</totfact>
</mgrwt>
</event>
<event>
 7    0  0.4709932E-002  0.4419992E+03  0.7546771E-02  0.1030135E+00
         21   -1    0    0  502  501  0.00000000000E+00  0.00000000000E+00  0.81624479359E+02  0.81624479359E+02  0.00000000000E+00 0. -1.
         21   -1    0    0  501  502 -0.00000000000E+00 -0.00000000000E+00 -0.59836006773E+03  0.59836006773E+03  0.00000000000E+00 0. -1.
      99926    2    1    2    0    0  0.00000000000E+00  0.00000000000E+00 -0.51673558837E+03  0.67998454709E+03  0.44199922623E+03 0.  0.
      99925    2    3    3    0    0 -0.81288228915E+02  0.44675361901E+02 -0.26974709970E+03  0.38800083906E+03  0.26301613865E+03 0.  0.
         25    1    3    3    0    0  0.81288228915E+02 -0.44675361901E+02 -0.24698848867E+03  0.29198370803E+03  0.12509000000E+03 0.  0.
         25    1    4    4    0    0 -0.38358125868E+02  0.63240139894E+02 -0.13805058064E+03  0.20043984641E+03  0.12509000000E+03 0.  0.
         25    1    4    4    0    0 -0.42930103047E+02 -0.18564777993E+02 -0.13169651906E+03  0.18756099265E+03  0.12509000000E+03 0.  0.
<mgrwt>
<rscale>  2 0.44199923E+03</rscale>
<asrwt>0</asrwt>
<pdfrwt beam="1">  1       21 0.12003600E-01 0.44199923E+03</pdfrwt>
<pdfrwt beam="2">  1       21 0.87994129E-01 0.44199923E+03</pdfrwt>
<totfact> 0.59904330E+04</totfact>
</mgrwt>
</event>
<event>
 7    0  0.4709932E-002  0.4581230E+03  0.7546771E-02  0.1025327E+00
         21   -1    0    0  502  501  0.00000000000E+00  0.00000000000E+00  0.13656746920E+03  0.13656746920E+03  0.00000000000E+00 0.  1.
         21   -1    0    0  501  502 -0.00000000000E+00 -0.00000000000E+00 -0.38419970348E+03  0.38419970348E+03  0.00000000000E+00 0.  1.
      99926    2    1    2    0    0  0.00000000000E+00  0.14210854715E-13 -0.24763223428E+03  0.52076717269E+03  0.45812304536E+03 0.  0.
      99925    2    3    3    0    0  0.23343596484E+02 -0.11207963344E+03 -0.17740677881E+03  0.33723000908E+03  0.26295274505E+03 0.  0.
         25    1    4    4    0    0  0.35547317261E+02 -0.41541900839E+02 -0.51674889851E+02  0.14596966682E+03  0.12509000000E+03 0.  0.
         25    1    3    3    0    0 -0.23343596484E+02  0.11207963344E+03 -0.70225455473E+02  0.18353716361E+03  0.12509000000E+03 0.  0.
         25    1    4    4    0    0 -0.12203720777E+02 -0.70537732598E+02 -0.12573188896E+03  0.19126034226E+03  0.12509000000E+03 0.  0.
<mgrwt>
<rscale>  2 0.45812305E+03</rscale>
<asrwt>0</asrwt>
<pdfrwt beam="1">  1       21 0.20083451E-01 0.45812305E+03</pdfrwt>
<pdfrwt beam="2">  1       21 0.56499956E-01 0.45812305E+03</pdfrwt>
<totfact> 0.62277522E+04</totfact>
</mgrwt>
</event>
<event>
 7    0  0.4709932E-002  0.4505369E+03  0.7546771E-02  0.1027562E+00
         21   -1    0    0  502  501  0.00000000000E+00  0.00000000000E+00  0.30397808957E+03  0.30397808957E+03  0.00000000000E+00 0. -1.
         21   -1    0    0  501  502 -0.00000000000E+00 -0.00000000000E+00 -0.16693927985E+03  0.16693927985E+03  0.00000000000E+00 0. -1.
      99926    2    1    2    0    0  0.00000000000E+00  0.00000000000E+00  0.13703880972E+03  0.47091736942E+03  0.45053693905E+03 0.  0.
      99925    2    3    3    0    0 -0.33281677630E+02 -0.39890860362E+02  0.18648518798E+03  0.32672512542E+03  0.26319884391E+03 0.  0.
         25    1    3    3    0    0  0.33281677630E+02  0.39890860362E+02 -0.49446378265E+02  0.14419224400E+03  0.12509000000E+03 0.  0.
         25    1    4    4    0    0  0.99670610244E+01 -0.12514803175E+02  0.12726228913E+03  0.17916238706E+03  0.12509000000E+03 0.  0.
         25    1    4    4    0    0 -0.43248738654E+02 -0.27376057187E+02  0.59222898855E+02  0.14756273836E+03  0.12509000000E+03 0.  0.
<mgrwt>
<rscale>  2 0.45053694E+03</rscale>
<asrwt>0</asrwt>
<pdfrwt beam="1">  1       21 0.44702660E-01 0.45053694E+03</pdfrwt>
<pdfrwt beam="2">  1       21 0.24549894E-01 0.45053694E+03</pdfrwt>
<totfact> 0.69807134E+04</totfact>
</mgrwt>
</event>
<event>
 7    0  0.4709932E-002  0.4379293E+03  0.7546771E-02  0.1031384E+00
         21   -1    0    0  502  501  0.00000000000E+00  0.00000000000E+00  0.51420942488E+02  0.51420942488E+02  0.00000000000E+00 0. -1.
         21   -1    0    0  501  502 -0.00000000000E+00 -0.00000000000E+00 -0.93241210971E+03  0.93241210971E+03  0.00000000000E+00 0. -1.
      99926    2    1    2    0    0  0.00000000000E+00  0.17763568394E-14 -0.88099116723E+03  0.98383305220E+03  0.43792926127E+03 0.  0.
      99925    2    3    3    0    0 -0.10927574571E+02  0.98181510058E+01 -0.34947294568E+03  0.43759598288E+03  0.26295074917E+03 0.  0.
         25    1    4    4    0    0  0.23646479094E+01 -0.16018583530E+02 -0.11716282868E+03  0.17215348705E+03  0.12509000000E+03 0.  0.
         25    1    4    4    0    0 -0.13292222480E+02  0.25836734536E+02 -0.23231011700E+03  0.26544249583E+03  0.12509000000E+03 0.  0.
         25    1    3    3    0    0  0.10927574571E+02 -0.98181510058E+01 -0.53151822154E+03  0.54623706933E+03  0.12509000000E+03 0.  0.
<mgrwt>
<rscale>  2 0.43792926E+03</rscale>
<asrwt>0</asrwt>
<pdfrwt beam="1">  1       21 0.75619044E-02 0.43792926E+03</pdfrwt>
<pdfrwt beam="2">  1       21 0.13711941E+00 0.43792926E+03</pdfrwt>
<totfact> 0.45583108E+04</totfact>
</mgrwt>
</event>
<event>
 7    0  0.4709932E-002  0.4538648E+03  0.7546771E-02  0.1026576E+00
         21   -1    0    0  502  501  0.00000000000E+00  0.00000000000E+00  0.39102646895E+02  0.39102646895E+02  0.00000000000E+00 0. -1.
         21   -1    0    0  501  502 -0.00000000000E+00 -0.00000000000E+00 -0.13170030425E+04  0.13170030425E+04  0.00000000000E+00 0. -1.
      99926    2    1    2    0    0  0.14210854715E-13 -0.14210854715E-13 -0.12779003956E+04  0.13561056894E+04  0.45386475928E+03 0.  0.
      99925    2    3    3    0    0  0.64621354582E+02 -0.87790685134E+02 -0.72984356943E+03  0.78348284958E+03  0.26323110735E+03 0.  0.
         25    1    3    3    0    0 -0.64621354582E+02  0.87790685134E+02 -0.54805682613E+03  0.57262283977E+03  0.12509000000E+03 0.  0.
         25    1    4    4    0    0  0.73505184676E+02 -0.46731824912E+02 -0.41483262628E+03  0.44195077957E+03  0.12509000000E+03 0.  0.
         25    1    4    4    0    0 -0.88838300934E+01 -0.41058860222E+02 -0.31501094315E+03  0.34153207001E+03  0.12509000000E+03 0.  0.
<mgrwt>
<rscale>  2 0.45386476E+03</rscale>
<asrwt>0</asrwt>
<pdfrwt beam="1">  1       21 0.57503907E-02 0.45386476E+03</pdfrwt>
<pdfrwt beam="2">  1       21 0.19367687E+00 0.45386476E+03</pdfrwt>
<totfact> 0.27769798E+04</totfact>
</mgrwt>
</event>
<event>
 7    0  0.4709932E-002  0.4606444E+03  0.7546771E-02  0.1024595E+00
         21   -1    0    0  502  501  0.00000000000E+00  0.00000000000E+00  0.90987485019E+02  0.90987485019E+02  0.00000000000E+00 0.  1.
         21   -1    0    0  501  502 -0.00000000000E+00 -0.00000000000E+00 -0.58302859887E+03  0.58302859887E+03  0.00000000000E+00 0.  1.
      99926    2    1    2    0    0 -0.71054273576E-14  0.00000000000E+00 -0.49204111385E+03  0.67401608389E+03  0.46064435698E+03 0.  0.
      99925    2    3    3    0    0 -0.49478677006E+02 -0.74324807652E+02 -0.42177573052E+03  0.50502777451E+03  0.26303225973E+03 0.  0.
         25    1    4    4    0    0 -0.56425435498E+02 -0.15939105161E+02 -0.23619454620E+03  0.27362978017E+03  0.12509000000E+03 0.  0.
         25    1    4    4    0    0  0.69467584914E+01 -0.58385702492E+02 -0.18558118433E+03  0.23139799434E+03  0.12509000000E+03 0.  0.
         25    1    3    3    0    0  0.49478677006E+02  0.74324807652E+02 -0.70265383324E+02  0.16898830937E+03  0.12509000000E+03 0.  0.
<mgrwt>
<rscale>  2 0.46064436E+03</rscale>
<asrwt>0</asrwt>
<pdfrwt beam="1">  1       21 0.13380512E-01 0.46064436E+03</pdfrwt>
<pdfrwt beam="2">  1       21 0.85739503E-01 0.46064436E+03</pdfrwt>
<totfact> 0.51985110E+04</totfact>
</mgrwt>
</event>
<event>
 7    0  0.4709932E-002  0.4555508E+03  0.7546771E-02  0.1026080E+00
         21   -1    0    0  502  501  0.00000000000E+00  0.00000000000E+00  0.11726941814E+03  0.11726941814E+03  0.00000000000E+00 0. -1.
         21   -1    0    0  501  502 -0.00000000000E+00 -0.00000000000E+00 -0.44241391514E+03  0.44241391514E+03  0.00000000000E+00 0. -1.
      99926    2    1    2    0    0  0.00000000000E+00  0.00000000000E+00 -0.32514449701E+03  0.55968333328E+03  0.45555075416E+03 0.  0.
      99925    2    3    3    0    0  0.10554007204E+03  0.39379403472E+02 -0.22123264704E+03  0.36185860053E+03  0.26326473071E+03 0.  0.
         25    1    3    3    0    0 -0.10554007204E+03 -0.39379403472E+02 -0.10391184997E+03  0.19782473275E+03  0.12509000000E+03 0.  0.
         25    1    4    4    0    0  0.87212626008E+02  0.26502239787E+02 -0.15293325352E+03  0.21758791093E+03  0.12509000000E+03 0.  0.
         25    1    4    4    0    0  0.18327446037E+02  0.12877163685E+02 -0.68299393519E+02  0.14427068960E+03  0.12509000000E+03 0.  0.
<mgrwt>
<rscale>  2 0.45555075E+03</rscale>
<asrwt>0</asrwt>
<pdfrwt beam="1">  1       21 0.17245503E-01 0.45555075E+03</pdfrwt>
<pdfrwt beam="2">  1       21 0.65060870E-01 0.45555075E+03</pdfrwt>
<totfact> 0.60965104E+04</totfact>
</mgrwt>
</event>
<event>
 7    0  0.4709932E-002  0.4526614E+03  0.7546771E-02  0.1026931E+00
         21   -1    0    0  502  501  0.00000000000E+00  0.00000000000E+00  0.45390091142E+02  0.45390091142E+02  0.00000000000E+00 0. -1.
         21   -1    0    0  501  502 -0.00000000000E+00 -0.00000000000E+00 -0.11285632138E+04  0.11285632138E+04  0.00000000000E+00 0. -1.
      99926    2    1    2    0    0  0.00000000000E+00 -0.41633363423E-15 -0.10831731226E+04  0.11739533049E+04  0.45266140605E+03 0.  0.
      99925    2    3    3    0    0  0.43342725098E+02 -0.11250473355E+00 -0.94793797348E+03  0.98470569424E+03  0.26302147866E+03 0.  0.
         25    1    4    4    0    0  0.61749275858E+02 -0.23965862282E+01 -0.46445258876E+03  0.48495611348E+03  0.12509000000E+03 0.  0.
         25    1    3    3    0    0 -0.43342725098E+02  0.11250473355E+00 -0.13523514913E+03  0.18924761065E+03  0.12509000000E+03 0.  0.
         25    1    4    4    0    0 -0.18406550761E+02  0.22840814946E+01 -0.48348538472E+03  0.49974958076E+03  0.12509000000E+03 0.  0.
<mgrwt>
<rscale>  2 0.45266141E+03</rscale>
<asrwt>0</asrwt>
<pdfrwt beam="1">  1       21 0.66750138E-02 0.45266141E+03</pdfrwt>
<pdfrwt beam="2">  1       21 0.16596517E+00 0.45266141E+03</pdfrwt>
<totfact> 0.33600716E+04</totfact>
</mgrwt>
</event>
<event>
 7    0  0.4709932E-002  0.4438986E+03  0.7546771E-02  0.1029557E+00
         21   -1    0    0  502  501  0.00000000000E+00  0.00000000000E+00  0.26759268168E+03  0.26759268168E+03  0.00000000000E+00 0. -1.
         21   -1    0    0  501  502 -0.00000000000E+00 -0.00000000000E+00 -0.18409135855E+03  0.18409135855E+03  0.00000000000E+00 0. -1.
      99926    2    1    2    0    0  0.00000000000E+00 -0.35527136788E-14  0.83501323134E+02  0.45168404024E+03  0.44389863847E+03 0.  0.
      99925    2    3    3    0    0 -0.86441392208E+02 -0.26191995716E+02  0.10226955409E+03  0.29625595552E+03  0.26296462606E+03 0.  0.
         25    1    4    4    0    0 -0.37279012692E+02  0.10738964643E+02  0.15047000164E+02  0.13182932323E+03  0.12509000000E+03 0.  0.
         25    1    4    4    0    0 -0.49162379517E+02 -0.36930960359E+02  0.87222553922E+02  0.16442663229E+03  0.12509000000E+03 0.  0.
         25    1    3    3    0    0  0.86441392208E+02  0.26191995716E+02 -0.18768230952E+02  0.15542808472E+03  0.12509000000E+03 0.  0.
<mgrwt>
<rscale>  2 0.44389864E+03</rscale>
<asrwt>0</asrwt>
<pdfrwt beam="1">  1       21 0.39351865E-01 0.44389864E+03</pdfrwt>
<pdfrwt beam="2">  1       21 0.27072258E-01 0.44389864E+03</pdfrwt>
<totfact> 0.75232601E+04</totfact>
</mgrwt>
</event>
<event>
 7    0  0.4709932E-002  0.4457890E+03  0.7546771E-02  0.1028985E+00
         21   -1    0    0  502  501  0.00000000000E+00  0.00000000000E+00  0.60057563179E+03  0.60057563179E+03  0.00000000000E+00 0. -1.
         21   -1    0    0  501  502 -0.00000000000E+00 -0.00000000000E+00 -0.82723904954E+02  0.82723904954E+02  0.00000000000E+00 0. -1.
      99926    2    1    2    0    0  0.00000000000E+00  0.00000000000E+00  0.51785172684E+03  0.68329953674E+03  0.44578901504E+03 0.  0.
      99925    2    3    3    0    0 -0.84953439098E+02  0.59453916779E+02  0.34017493894E+03  0.44253325154E+03  0.26337204597E+03 0.  0.
         25    1    4    4    0    0 -0.49311765446E+02 -0.11242394196E+02  0.16750120723E+03  0.21508650391E+03  0.12509000000E+03 0.  0.
         25    1    3    3    0    0  0.84953439098E+02 -0.59453916779E+02  0.17767678790E+03  0.24076628521E+03  0.12509000000E+03 0.  0.
         25    1    4    4    0    0 -0.35641673652E+02  0.70696310975E+02  0.17267373171E+03  0.22744674763E+03  0.12509000000E+03 0.  0.
<mgrwt>
<rscale>  2 0.44578902E+03</rscale>
<asrwt>0</asrwt>
<pdfrwt beam="1">  1       21 0.88319943E-01 0.44578902E+03</pdfrwt>
<pdfrwt beam="2">  1       21 0.12165281E-01 0.44578902E+03</pdfrwt>
<totfact> 0.57905854E+04</totfact>
</mgrwt>
</event>
<event>
 7    0  0.4709932E-002  0.4589420E+03  0.7546771E-02  0.1025089E+00
         21   -1    0    0  502  501  0.00000000000E+00  0.00000000000E+00  0.24401591576E+03  0.24401591576E+03  0.00000000000E+00 0. -1.
         21   -1    0    0  501  502 -0.00000000000E+00 -0.00000000000E+00 -0.21579300974E+03  0.21579300974E+03  0.00000000000E+00 0. -1.
      99926    2    1    2    0    0  0.00000000000E+00  0.17763568394E-14  0.28222906024E+02  0.45980892550E+03  0.45894195227E+03 0.  0.
      99925    2    3    3    0    0 -0.10718832083E+02 -0.14188731525E+02 -0.97930010247E+02  0.28126402962E+03  0.26306454338E+03 0.  0.
         25    1    4    4    0    0 -0.28380500107E+02  0.15034132705E+02 -0.22017603207E+02  0.13101053730E+03  0.12509000000E+03 0.  0.
         25    1    3    3    0    0  0.10718832083E+02  0.14188731525E+02  0.12615291627E+03  0.17854489589E+03  0.12509000000E+03 0.  0.
         25    1    4    4    0    0  0.17661668025E+02 -0.29222864230E+02 -0.75912407040E+02  0.15025349232E+03  0.12509000000E+03 0.  0.
<mgrwt>
<rscale>  2 0.45894195E+03</rscale>
<asrwt>0</asrwt>
<pdfrwt beam="1">  1       21 0.35884694E-01 0.45894195E+03</pdfrwt>
<pdfrwt beam="2">  1       21 0.31734266E-01 0.45894195E+03</pdfrwt>
<totfact> 0.66091646E+04</totfact>
</mgrwt>
</event>
<event>
 7    0  0.4709932E-002  0.4549576E+03  0.7546771E-02  0.1026254E+00
         21   -1    0    0  502  501  0.00000000000E+00  0.00000000000E+00  0.50447192505E+02  0.50447192505E+02  0.00000000000E+00 0.  1.
         21   -1    0    0  501  502 -0.00000000000E+00 -0.00000000000E+00 -0.10257579012E+04  0.10257579012E+04  0.00000000000E+00 0.  1.
      99926    2    1    2    0    0  0.44408920985E-15  0.00000000000E+00 -0.97531070870E+03  0.10762050937E+04  0.45495760816E+03 0.  0.
      99925    2    3    3    0    0  0.22490978459E+01 -0.11171736394E+03 -0.57499532590E+03  0.64217083049E+03  0.26320699625E+03 0.  0.
         25    1    4    4    0    0 -0.95455980604E+01 -0.78443514225E+02 -0.22976522828E+03  0.27328386633E+03  0.12509000000E+03 0.  0.
         25    1    4    4    0    0  0.11794695906E+02 -0.33273849714E+02 -0.34523009762E+03  0.36888696416E+03  0.12509000000E+03 0.  0.
         25    1    3    3    0    0 -0.22490978459E+01  0.11171736394E+03 -0.40031538279E+03  0.43403426322E+03  0.12509000000E+03 0.  0.
<mgrwt>
<rscale>  2 0.45495761E+03</rscale>
<asrwt>0</asrwt>
<pdfrwt beam="1">  1       21 0.74187049E-02 0.45495761E+03</pdfrwt>
<pdfrwt beam="2">  1       21 0.15084675E+00 0.45495761E+03</pdfrwt>
<totfact> 0.36342318E+04</totfact>
</mgrwt>
</event>
<event>
 7    0  0.4709932E-002  0.4560533E+03  0.7546771E-02  0.1025932E+00
         21   -1    0    0  502  501  0.00000000000E+00  0.00000000000E+00  0.15676783187E+03  0.15676783187E+03  0.00000000000E+00 0. -1.
         21   -1    0    0  501  502 -0.00000000000E+00 -0.00000000000E+00 -0.33167617216E+03  0.33167617216E+03  0.00000000000E+00 0. -1.
      99926    2    1    2    0    0  0.00000000000E+00  0.00000000000E+00 -0.17490834029E+03  0.48844400402E+03  0.45605330562E+03 0.  0.
      99925    2    3    3    0    0  0.85841602476E+02 -0.66392324865E+02 -0.14757229948E+03  0.32060036028E+03  0.26311648737E+03 0.  0.
         25    1    4    4    0    0  0.59766426386E+02 -0.92392390024E+01 -0.41610801462E+02  0.14503915388E+03  0.12509000000E+03 0.  0.
         25    1    3    3    0    0 -0.85841602476E+02  0.66392324865E+02 -0.27336040810E+02  0.16784364374E+03  0.12509000000E+03 0.  0.
         25    1    4    4    0    0  0.26075176090E+02 -0.57153085863E+02 -0.10596149802E+03  0.17556120640E+03  0.12509000000E+03 0.  0.
<mgrwt>
<rscale>  2 0.45605331E+03</rscale>
<asrwt>0</asrwt>
<pdfrwt beam="1">  1       21 0.23054093E-01 0.45605331E+03</pdfrwt>
<pdfrwt beam="2">  1       21 0.48775907E-01 0.45605331E+03</pdfrwt>
<totfact> 0.65540634E+04</totfact>
</mgrwt>
</event>
<event>
 7    0  0.4709932E-002  0.4000643E+03  0.7546771E-02  0.1043757E+00
         21   -1    0    0  502  501  0.00000000000E+00  0.00000000000E+00  0.23846720325E+03  0.23846720325E+03  0.00000000000E+00 0. -1.
         21   -1    0    0  501  502 -0.00000000000E+00 -0.00000000000E+00 -0.16779185226E+03  0.16779185226E+03  0.00000000000E+00 0. -1.
      99926    2    1    2    0    0  0.35527136788E-14  0.00000000000E+00  0.70675350989E+02  0.40625905552E+03  0.40006426353E+03 0.  0.
      99925    2    3    3    0    0 -0.16408071188E+02  0.19100438209E+02  0.83994027511E+01  0.26427365708E+03  0.26293718703E+03 0.  0.
         25    1    3    3    0    0  0.16408071188E+02 -0.19100438209E+02  0.62275948238E+02  0.14198539844E+03  0.12509000000E+03 0.  0.
         25    1    4    4    0    0 -0.63507929067E+01 -0.28468504553E+02 -0.98923627876E+01  0.12882606593E+03  0.12509000000E+03 0.  0.
         25    1    4    4    0    0 -0.10057278281E+02  0.47568942762E+02  0.18291765539E+02  0.13544759115E+03  0.12509000000E+03 0.  0.
<mgrwt>
<rscale>  2 0.40006426E+03</rscale>
<asrwt>0</asrwt>
<pdfrwt beam="1">  1       21 0.35068706E-01 0.40006426E+03</pdfrwt>
<pdfrwt beam="2">  1       21 0.24675272E-01 0.40006426E+03</pdfrwt>
<totfact> 0.11497836E+05</totfact>
</mgrwt>
</event>
<event>
 7    0  0.4709932E-002  0.4564932E+03  0.7546771E-02  0.1025803E+00
         21   -1    0    0  502  501  0.00000000000E+00  0.00000000000E+00  0.45721592096E+02  0.45721592096E+02  0.00000000000E+00 0. -1.
         21   -1    0    0  501  502 -0.00000000000E+00 -0.00000000000E+00 -0.11394289770E+04  0.11394289770E+04  0.00000000000E+00 0. -1.
      99926    2    1    2    0    0  0.00000000000E+00  0.00000000000E+00 -0.10937073849E+04  0.11851505691E+04  0.45649318466E+03 0.  0.
      99925    2    3    3    0    0  0.70721340576E+02  0.86621180460E+02 -0.62296208634E+03  0.68539724881E+03  0.26302640693E+03 0.  0.
         25    1    4    4    0    0  0.44395961694E+02  0.41442942359E+02 -0.41001527871E+03  0.43295329513E+03  0.12509000000E+03 0.  0.
         25    1    3    3    0    0 -0.70721340576E+02 -0.86621180460E+02 -0.47074529857E+03  0.49975332029E+03  0.12509000000E+03 0.  0.
         25    1    4    4    0    0  0.26325378882E+02  0.45178238101E+02 -0.21294680763E+03  0.25244395368E+03  0.12509000000E+03 0.  0.
<mgrwt>
<rscale>  2 0.45649318E+03</rscale>
<asrwt>0</asrwt>
<pdfrwt beam="1">  1       21 0.67237630E-02 0.45649318E+03</pdfrwt>
<pdfrwt beam="2">  1       21 0.16756310E+00 0.45649318E+03</pdfrwt>
<totfact> 0.32253310E+04</totfact>
</mgrwt>
</event>
<event>
 7    0  0.4709932E-002  0.4355528E+03  0.7546771E-02  0.1032120E+00
         21   -1    0    0  502  501  0.00000000000E+00  0.00000000000E+00  0.18909960646E+03  0.18909960646E+03  0.00000000000E+00 0.  1.
         21   -1    0    0  501  502 -0.00000000000E+00 -0.00000000000E+00 -0.25080205320E+03  0.25080205320E+03  0.00000000000E+00 0.  1.
      99926    2    1    2    0    0  0.00000000000E+00  0.00000000000E+00 -0.61702446744E+02  0.43990165966E+03  0.43555284208E+03 0.  0.
      99925    2    3    3    0    0 -0.82606953815E+01 -0.20817102986E+02  0.52954882760E+02  0.26874266290E+03  0.26252011045E+03 0.  0.
         25    1    4    4    0    0  0.17718501061E+01  0.20095137909E+02  0.49432399116E+00  0.12670716821E+03  0.12509000000E+03 0.  0.
         25    1    3    3    0    0  0.82606953815E+01  0.20817102986E+02 -0.11465732950E+03  0.17115899677E+03  0.12509000000E+03 0.  0.
         25    1    4    4    0    0 -0.10032545488E+02 -0.40912240895E+02  0.52460558769E+02  0.14203549469E+03  0.12509000000E+03 0.  0.
<mgrwt>
<rscale>  2 0.43555284E+03</rscale>
<asrwt>0</asrwt>
<pdfrwt beam="1">  1       21 0.27808766E-01 0.43555284E+03</pdfrwt>
<pdfrwt beam="2">  1       21 0.36882655E-01 0.43555284E+03</pdfrwt>
<totfact> 0.81612057E+04</totfact>
</mgrwt>
</event>
<event>
 7    0  0.4709932E-002  0.4577290E+03  0.7546771E-02  0.1025442E+00
         21   -1    0    0  502  501  0.00000000000E+00  0.00000000000E+00  0.17791095141E+03  0.17791095141E+03  0.00000000000E+00 0.  1.
         21   -1    0    0  501  502 -0.00000000000E+00 -0.00000000000E+00 -0.29441114852E+03  0.29441114852E+03  0.00000000000E+00 0.  1.
      99926    2    1    2    0    0  0.00000000000E+00  0.00000000000E+00 -0.11650019711E+03  0.47232209993E+03  0.45772903574E+03 0.  0.
      99925    2    3    3    0    0  0.97437870295E+02 -0.44467384822E+02 -0.11821911707E+03  0.30763466973E+03  0.26304342512E+03 0.  0.
         25    1    4    4    0    0  0.93374192287E+01 -0.29357153584E+02 -0.69362037804E+02  0.14631346573E+03  0.12509000000E+03 0.  0.
         25    1    4    4    0    0  0.88100451066E+02 -0.15110231238E+02 -0.48857079268E+02  0.16132120400E+03  0.12509000000E+03 0.  0.
         25    1    3    3    0    0 -0.97437870295E+02  0.44467384822E+02  0.17189199598E+01  0.16468743020E+03  0.12509000000E+03 0.  0.
<mgrwt>
<rscale>  2 0.45772904E+03</rscale>
<asrwt>0</asrwt>
<pdfrwt beam="1">  1       21 0.26163376E-01 0.45772904E+03</pdfrwt>
<pdfrwt beam="2">  1       21 0.43295756E-01 0.45772904E+03</pdfrwt>
<totfact> 0.65826682E+04</totfact>
</mgrwt>
</event>
<event>
 7    0  0.4709932E-002  0.4491763E+03  0.7546771E-02  0.1027968E+00
         21   -1    0    0  502  501  0.00000000000E+00  0.00000000000E+00  0.89818707401E+02  0.89818707401E+02  0.00000000000E+00 0.  1.
         21   -1    0    0  501  502 -0.00000000000E+00 -0.00000000000E+00 -0.56157391244E+03  0.56157391244E+03  0.00000000000E+00 0.  1.
      99926    2    1    2    0    0  0.00000000000E+00  0.00000000000E+00 -0.47175520504E+03  0.65139261984E+03  0.44917632585E+03 0.  0.
      99925    2    3    3    0    0 -0.40307443166E+02  0.82091444994E+02 -0.21645263829E+03  0.35274465985E+03  0.26308431180E+03 0.  0.
         25    1    4    4    0    0 -0.49818687233E+02  0.17699009906E+02 -0.86699545815E+02  0.16111944604E+03  0.12509000000E+03 0.  0.
         25    1    3    3    0    0  0.40307443166E+02 -0.82091444994E+02 -0.25530256675E+03  0.29864795999E+03  0.12509000000E+03 0.  0.
         25    1    4    4    0    0  0.95112440669E+01  0.64392435088E+02 -0.12975309247E+03  0.19162521381E+03  0.12509000000E+03 0.  0.
<mgrwt>
<rscale>  2 0.44917633E+03</rscale>
<asrwt>0</asrwt>
<pdfrwt beam="1">  1       21 0.13208633E-01 0.44917633E+03</pdfrwt>
<pdfrwt beam="2">  1       21 0.82584400E-01 0.44917633E+03</pdfrwt>
<totfact> 0.58251541E+04</totfact>
</mgrwt>
</event>
<event>
 7    0  0.4709932E-002  0.4518569E+03  0.7546771E-02  0.1027170E+00
         21   -1    0    0  502  501  0.00000000000E+00  0.00000000000E+00  0.36429318005E+03  0.36429318005E+03  0.00000000000E+00 0. -1.
         21   -1    0    0  501  502 -0.00000000000E+00 -0.00000000000E+00 -0.14011701087E+03  0.14011701087E+03  0.00000000000E+00 0. -1.
      99926    2    1    2    0    0 -0.14210854715E-13  0.00000000000E+00  0.22417616918E+03  0.50441019092E+03  0.45185693076E+03 0.  0.
      99925    2    3    3    0    0 -0.97761535546E+02 -0.36451404351E+02  0.10173682434E+03  0.30063353874E+03  0.26295269627E+03 0.  0.
         25    1    4    4    0    0 -0.53815185095E+02  0.61437774318E+00  0.12890322312E+02  0.13678494112E+03  0.12509000000E+03 0.  0.
         25    1    3    3    0    0  0.97761535546E+02  0.36451404351E+02  0.12243934484E+03  0.20377665218E+03  0.12509000000E+03 0.  0.
         25    1    4    4    0    0 -0.43946350452E+02 -0.37065782094E+02  0.88846502028E+02  0.16384859762E+03  0.12509000000E+03 0.  0.
<mgrwt>
<rscale>  2 0.45185693E+03</rscale>
<asrwt>0</asrwt>
<pdfrwt beam="1">  1       21 0.53572526E-01 0.45185693E+03</pdfrwt>
<pdfrwt beam="2">  1       21 0.20605443E-01 0.45185693E+03</pdfrwt>
<totfact> 0.66608141E+04</totfact>
</mgrwt>
</event>
<event>
 7    0  0.4709932E-002  0.4524586E+03  0.7546771E-02  0.1026991E+00
         21   -1    0    0  502  501  0.00000000000E+00  0.00000000000E+00  0.30931175315E+02  0.30931175315E+02  0.00000000000E+00 0. -1.
         21   -1    0    0  501  502 -0.00000000000E+00 -0.00000000000E+00 -0.16546317781E+04  0.16546317781E+04  0.00000000000E+00 0. -1.
      99926    2    1    2    0    0  0.00000000000E+00 -0.14210854715E-13 -0.16237006028E+04  0.16855629535E+04  0.45245864170E+03 0.  0.
      99925    2    3    3    0    0  0.99876898838E+01  0.90469642578E+02 -0.12608027930E+04  0.12910672771E+04  0.26257669551E+03 0.  0.
         25    1    4    4    0    0  0.84093393087E+01  0.57699342050E+01 -0.51001505134E+03  0.52523030169E+03  0.12509000000E+03 0.  0.
         25    1    4    4    0    0  0.15783505751E+01  0.84699708373E+02 -0.75078774162E+03  0.76583697538E+03  0.12509000000E+03 0.  0.
         25    1    3    3    0    0 -0.99876898838E+01 -0.90469642578E+02 -0.36289780987E+03  0.39449567639E+03  0.12509000000E+03 0.  0.
<mgrwt>
<rscale>  2 0.45245864E+03</rscale>
<asrwt>0</asrwt>
<pdfrwt beam="1">  1       21 0.45487009E-02 0.45245864E+03</pdfrwt>
<pdfrwt beam="2">  1       21 0.24332828E+00 0.45245864E+03</pdfrwt>
<totfact> 0.19954462E+04</totfact>
</mgrwt>
</event>
<event>
 7    0  0.4709932E-002  0.4117762E+03  0.7546771E-02  0.1039777E+00
         21   -1    0    0  502  501  0.00000000000E+00  0.00000000000E+00  0.44969322415E+03  0.44969322415E+03  0.00000000000E+00 0. -1.
         21   -1    0    0  501  502 -0.00000000000E+00 -0.00000000000E+00 -0.94264077600E+02  0.94264077600E+02  0.00000000000E+00 0. -1.
      99926    2    1    2    0    0 -0.17763568394E-14  0.00000000000E+00  0.35542914655E+03  0.54395730175E+03  0.41177623524E+03 0.  0.
      99925    2    3    3    0    0 -0.81668806314E+01 -0.17633411910E+02  0.15200150298E+03  0.30435774119E+03  0.26296680885E+03 0.  0.
         25    1    4    4    0    0 -0.28902750311E+02 -0.38694458603E+01  0.39750748619E+02  0.13445434802E+03  0.12509000000E+03 0.  0.
         25    1    4    4    0    0  0.20735869680E+02 -0.13763966050E+02  0.11225075436E+03  0.16990339316E+03  0.12509000000E+03 0.  0.
         25    1    3    3    0    0  0.81668806314E+01  0.17633411910E+02  0.20342764357E+03  0.23959956056E+03  0.12509000000E+03 0.  0.
<mgrwt>
<rscale>  2 0.41177624E+03</rscale>
<asrwt>0</asrwt>
<pdfrwt beam="1">  1       21 0.66131356E-01 0.41177624E+03</pdfrwt>
<pdfrwt beam="2">  1       21 0.13862365E-01 0.41177624E+03</pdfrwt>
<totfact> 0.89030305E+04</totfact>
</mgrwt>
</event>
<event>
 7    0  0.4709932E-002  0.4468959E+03  0.7546771E-02  0.1028652E+00
         21   -1    0    0  502  501  0.00000000000E+00  0.00000000000E+00  0.25116074052E+03  0.25116074052E+03  0.00000000000E+00 0.  1.
         21   -1    0    0  501  502 -0.00000000000E+00 -0.00000000000E+00 -0.19879298641E+03  0.19879298641E+03  0.00000000000E+00 0.  1.
      99926    2    1    2    0    0  0.00000000000E+00  0.00000000000E+00  0.52367754106E+02  0.44995372693E+03  0.44689593275E+03 0.  0.
      99925    2    3    3    0    0  0.43849478213E+02  0.88585667648E+02  0.69705037721E+02  0.28958450683E+03  0.26311631850E+03 0.  0.
         25    1    4    4    0    0  0.52108879282E+02  0.41297076671E+02  0.64080029770E+02  0.15548164572E+03  0.12509000000E+03 0.  0.
         25    1    4    4    0    0 -0.82594010692E+01  0.47288590977E+02  0.56250079508E+01  0.13410286111E+03  0.12509000000E+03 0.  0.
         25    1    3    3    0    0 -0.43849478213E+02 -0.88585667648E+02 -0.17337283614E+02  0.16036922010E+03  0.12509000000E+03 0.  0.
<mgrwt>
<rscale>  2 0.44689593E+03</rscale>
<asrwt>0</asrwt>
<pdfrwt beam="1">  1       21 0.36935403E-01 0.44689593E+03</pdfrwt>
<pdfrwt beam="2">  1       21 0.29234263E-01 0.44689593E+03</pdfrwt>
<totfact> 0.73559313E+04</totfact>
</mgrwt>
</event>
<event>
 7    0  0.4709932E-002  0.4447473E+03  0.7546771E-02  0.1029300E+00
         21   -1    0    0  502  501  0.00000000000E+00  0.00000000000E+00  0.12733323359E+03  0.12733323359E+03  0.00000000000E+00 0.  1.
         21   -1    0    0  501  502 -0.00000000000E+00 -0.00000000000E+00 -0.38835146600E+03  0.38835146600E+03  0.00000000000E+00 0.  1.
      99926    2    1    2    0    0  0.00000000000E+00  0.00000000000E+00 -0.26101823241E+03  0.51568469959E+03  0.44474733472E+03 0.  0.
      99925    2    3    3    0    0 -0.73177786098E+02 -0.65443685486E+02 -0.12819982111E+03  0.30849854458E+03  0.26286554267E+03 0.  0.
         25    1    3    3    0    0  0.73177786098E+02  0.65443685486E+02 -0.13281841130E+03  0.20718615501E+03  0.12509000000E+03 0.  0.
         25    1    4    4    0    0 -0.56824674589E+02 -0.21027522965E+02 -0.10151800068E+03  0.17211802034E+03  0.12509000000E+03 0.  0.
         25    1    4    4    0    0 -0.16353111508E+02 -0.44416162521E+02 -0.26681820427E+02  0.13638052423E+03  0.12509000000E+03 0.  0.
<mgrwt>
<rscale>  2 0.44474733E+03</rscale>
<asrwt>0</asrwt>
<pdfrwt beam="1">  1       21 0.18725476E-01 0.44474733E+03</pdfrwt>
<pdfrwt beam="2">  1       21 0.57110509E-01 0.44474733E+03</pdfrwt>
<totfact> 0.69679499E+04</totfact>
</mgrwt>
</event>
<event>
 7    0  0.4709932E-002  0.4546102E+03  0.7546771E-02  0.1026356E+00
         21   -1    0    0  502  501  0.00000000000E+00  0.00000000000E+00  0.30718573168E+03  0.30718573168E+03  0.00000000000E+00 0. -1.
         21   -1    0    0  501  502 -0.00000000000E+00 -0.00000000000E+00 -0.16819665398E+03  0.16819665398E+03  0.00000000000E+00 0. -1.
      99926    2    1    2    0    0  0.00000000000E+00  0.00000000000E+00  0.13898907770E+03  0.47538238566E+03  0.45461021643E+03 0.  0.
      99925    2    3    3    0    0  0.10262640894E+03  0.42459885394E+02  0.66710091556E+02  0.29315510555E+03  0.26297273226E+03 0.  0.
         25    1    4    4    0    0  0.55651959694E+02  0.35767263704E+02  0.72989079118E+02  0.15922107757E+03  0.12509000000E+03 0.  0.
         25    1    3    3    0    0 -0.10262640894E+03 -0.42459885394E+02  0.72278986145E+02  0.18222728011E+03  0.12509000000E+03 0.  0.
         25    1    4    4    0    0  0.46974449248E+02  0.66926216903E+01 -0.62789875614E+01  0.13393402798E+03  0.12509000000E+03 0.  0.
<mgrwt>
<rscale>  2 0.45461022E+03</rscale>
<asrwt>0</asrwt>
<pdfrwt beam="1">  1       21 0.45174372E-01 0.45461022E+03</pdfrwt>
<pdfrwt beam="2">  1       21 0.24734802E-01 0.45461022E+03</pdfrwt>
<totfact> 0.67245569E+04</totfact>
</mgrwt>
</event>
<event>
 7    0  0.4709932E-002  0.4633096E+03  0.7546771E-02  0.1023826E+00
         21   -1    0    0  502  501  0.00000000000E+00  0.00000000000E+00  0.15025891492E+03  0.15025891492E+03  0.00000000000E+00 0.  1.
         21   -1    0    0  501  502 -0.00000000000E+00 -0.00000000000E+00 -0.35714317294E+03  0.35714317294E+03  0.00000000000E+00 0.  1.
      99926    2    1    2    0    0 -0.35527136788E-14  0.00000000000E+00 -0.20688425802E+03  0.50740208785E+03  0.46330959686E+03 0.  0.
      99925    2    3    3    0    0  0.27754797976E+02 -0.71310752436E+02 -0.26919442893E+02  0.27525903927E+03  0.26303484573E+03 0.  0.
         25    1    3    3    0    0 -0.27754797976E+02  0.71310752436E+02 -0.17996481513E+03  0.23214304859E+03  0.12509000000E+03 0.  0.
         25    1    4    4    0    0  0.34448218309E+02 -0.33945473905E+02 -0.48802699301E+02  0.14271715560E+03  0.12509000000E+03 0.  0.
         25    1    4    4    0    0 -0.66934203330E+01 -0.37365278531E+02  0.21883256408E+02  0.13254188367E+03  0.12509000000E+03 0.  0.
<mgrwt>
<rscale>  2 0.46330960E+03</rscale>
<asrwt>0</asrwt>
<pdfrwt beam="1">  1       21 0.22096900E-01 0.46330960E+03</pdfrwt>
<pdfrwt beam="2">  1       21 0.52521054E-01 0.46330960E+03</pdfrwt>
<totfact> 0.60653282E+04</totfact>
</mgrwt>
</event>
<event>
 7    0  0.4709932E-002  0.4593033E+03  0.7546771E-02  0.1024983E+00
         21   -1    0    0  502  501  0.00000000000E+00  0.00000000000E+00  0.68317622747E+02  0.68317622747E+02  0.00000000000E+00 0. -1.
         21   -1    0    0  501  502 -0.00000000000E+00 -0.00000000000E+00 -0.77198066124E+03  0.77198066124E+03  0.00000000000E+00 0. -1.
      99926    2    1    2    0    0  0.00000000000E+00  0.00000000000E+00 -0.70366303849E+03  0.84029828399E+03  0.45930331409E+03 0.  0.
      99925    2    3    3    0    0  0.10961236004E+03 -0.41177993372E+01 -0.51741187420E+03  0.59056076169E+03  0.26270732753E+03 0.  0.
         25    1    3    3    0    0 -0.10961236004E+03  0.41177993372E+01 -0.18625116429E+03  0.24973752230E+03  0.12509000000E+03 0.  0.
         25    1    4    4    0    0  0.63188203605E+02  0.26784861886E+02 -0.31916374758E+03  0.34960432459E+03  0.12509000000E+03 0.  0.
         25    1    4    4    0    0  0.46424156432E+02 -0.30902661224E+02 -0.19824812661E+03  0.24095643709E+03  0.12509000000E+03 0.  0.
<mgrwt>
<rscale>  2 0.45930331E+03</rscale>
<asrwt>0</asrwt>
<pdfrwt beam="1">  1       21 0.10046709E-01 0.45930331E+03</pdfrwt>
<pdfrwt beam="2">  1       21 0.11352657E+00 0.45930331E+03</pdfrwt>
<totfact> 0.44359820E+04</totfact>
</mgrwt>
</event>
<event>
 7    0  0.4709932E-002  0.4576126E+03  0.7546771E-02  0.1025476E+00
         21   -1    0    0  502  501  0.00000000000E+00  0.00000000000E+00  0.20863431242E+03  0.20863431242E+03  0.00000000000E+00 0. -1.
         21   -1    0    0  501  502 -0.00000000000E+00 -0.00000000000E+00 -0.25092861907E+03  0.25092861907E+03  0.00000000000E+00 0. -1.
      99926    2    1    2    0    0 -0.71054273576E-14  0.00000000000E+00 -0.42294306657E+02  0.45956293149E+03  0.45761258683E+03 0.  0.
      99925    2    3    3    0    0  0.38942600195E+02 -0.83332203615E+02 -0.96730052012E+02  0.29502861671E+03  0.26310530106E+03 0.  0.
         25    1    4    4    0    0  0.37638539893E+02 -0.10594898669E+02 -0.67421270961E+02  0.14738401352E+03  0.12509000000E+03 0.  0.
         25    1    3    3    0    0 -0.38942600195E+02  0.83332203615E+02  0.54435745355E+02  0.16453431478E+03  0.12509000000E+03 0.  0.
         25    1    4    4    0    0  0.13040603028E+01 -0.72737304945E+02 -0.29308781051E+02  0.14764460319E+03  0.12509000000E+03 0.  0.
<mgrwt>
<rscale>  2 0.45761259E+03</rscale>
<asrwt>0</asrwt>
<pdfrwt beam="1">  1       21 0.30681517E-01 0.45761259E+03</pdfrwt>
<pdfrwt beam="2">  1       21 0.36901267E-01 0.45761259E+03</pdfrwt>
<totfact> 0.66809286E+04</totfact>
</mgrwt>
</event>
<event>
 7    0  0.4709932E-002  0.4527449E+03  0.7546771E-02  0.1026907E+00
         21   -1    0    0  502  501  0.00000000000E+00  0.00000000000E+00  0.12955345435E+03  0.12955345435E+03  0.00000000000E+00 0.  1.
         21   -1    0    0  501  502 -0.00000000000E+00 -0.00000000000E+00 -0.39554710035E+03  0.39554710035E+03  0.00000000000E+00 0.  1.
      99926    2    1    2    0    0  0.00000000000E+00  0.00000000000E+00 -0.26599364600E+03  0.52510055470E+03  0.45274493132E+03 0.  0.
      99925    2    3    3    0    0  0.82543992664E+02  0.63646071840E+02 -0.12060045312E+03  0.30680941466E+03  0.26215112902E+03 0.  0.
         25    1    4    4    0    0  0.14772983298E+02  0.81192455169E+01 -0.31864685079E+02  0.13018075679E+03  0.12509000000E+03 0.  0.
         25    1    4    4    0    0  0.67771009366E+02  0.55526826324E+02 -0.88735768042E+02  0.17662865787E+03  0.12509000000E+03 0.  0.
         25    1    3    3    0    0 -0.82543992664E+02 -0.63646071840E+02 -0.14539319288E+03  0.21829114004E+03  0.12509000000E+03 0.  0.
<mgrwt>
<rscale>  2 0.45274493E+03</rscale>
<asrwt>0</asrwt>
<pdfrwt beam="1">  1       21 0.19051978E-01 0.45274493E+03</pdfrwt>
<pdfrwt beam="2">  1       21 0.58168692E-01 0.45274493E+03</pdfrwt>
<totfact> 0.64688044E+04</totfact>
</mgrwt>
</event>
<event>
 7    0  0.4709932E-002  0.4538116E+03  0.7546771E-02  0.1026591E+00
         21   -1    0    0  502  501  0.00000000000E+00  0.00000000000E+00  0.27055382345E+04  0.27055382345E+04  0.00000000000E+00 0. -1.
         21   -1    0    0  501  502 -0.00000000000E+00 -0.00000000000E+00 -0.19029941614E+02  0.19029941614E+02  0.00000000000E+00 0. -1.
      99926    2    1    2    0    0  0.00000000000E+00  0.00000000000E+00  0.26865082929E+04  0.27245681761E+04  0.45381156722E+03 0.  0.
      99925    2    3    3    0    0  0.93047602425E+02  0.41503026930E+02  0.19733329274E+04  0.19933726020E+04  0.26288995891E+03 0.  0.
         25    1    3    3    0    0 -0.93047602425E+02 -0.41503026930E+02  0.71317536550E+03  0.73119557412E+03  0.12509000000E+03 0.  0.
         25    1    4    4    0    0  0.73415852215E+02  0.26462315295E+02  0.83459663837E+03  0.84751943834E+03  0.12509000000E+03 0.  0.
         25    1    4    4    0    0  0.19631750210E+02  0.15040711635E+02  0.11387362890E+04  0.11458531637E+04  0.12509000000E+03 0.  0.
<mgrwt>
<rscale>  2 0.45381157E+03</rscale>
<asrwt>0</asrwt>
<pdfrwt beam="1">  1       21 0.39787301E+00 0.45381157E+03</pdfrwt>
<pdfrwt beam="2">  1       21 0.27985227E-02 0.45381157E+03</pdfrwt>
<totfact> 0.51437396E+03</totfact>
</mgrwt>
</event>
<event>
 7    0  0.4709932E-002  0.4501257E+03  0.7546771E-02  0.1027685E+00
         21   -1    0    0  502  501  0.00000000000E+00  0.00000000000E+00  0.26700509317E+03  0.26700509317E+03  0.00000000000E+00 0. -1.
         21   -1    0    0  501  502 -0.00000000000E+00 -0.00000000000E+00 -0.18970902995E+03  0.18970902995E+03  0.00000000000E+00 0. -1.
      99926    2    1    2    0    0 -0.14210854715E-13 -0.14210854715E-13  0.77296063219E+02  0.45671412313E+03  0.45012565898E+03 0.  0.
      99925    2    3    3    0    0 -0.75086459901E+02 -0.77848324106E+02  0.58280638316E+02  0.29025862604E+03  0.26297357122E+03 0.  0.
         25    1    4    4    0    0 -0.11435147878E+02 -0.38922189306E+02  0.60122883403E+02  0.14459588043E+03  0.12509000000E+03 0.  0.
         25    1    4    4    0    0 -0.63651312023E+02 -0.38926134801E+02 -0.18422450868E+01  0.14566274561E+03  0.12509000000E+03 0.  0.
         25    1    3    3    0    0  0.75086459901E+02  0.77848324106E+02  0.19015424903E+02  0.16645549709E+03  0.12509000000E+03 0.  0.
<mgrwt>
<rscale>  2 0.45012566E+03</rscale>
<asrwt>0</asrwt>
<pdfrwt beam="1">  1       21 0.39265455E-01 0.45012566E+03</pdfrwt>
<pdfrwt beam="2">  1       21 0.27898387E-01 0.45012566E+03</pdfrwt>
<totfact> 0.71146056E+04</totfact>
</mgrwt>
</event>
<event>
 7    0  0.4709932E-002  0.4554143E+03  0.7546771E-02  0.1026120E+00
         21   -1    0    0  502  501  0.00000000000E+00  0.00000000000E+00  0.80531408123E+03  0.80531408123E+03  0.00000000000E+00 0.  1.
         21   -1    0    0  501  502 -0.00000000000E+00 -0.00000000000E+00 -0.64385503052E+02  0.64385503052E+02  0.00000000000E+00 0.  1.
      99926    2    1    2    0    0  0.00000000000E+00  0.00000000000E+00  0.74092857818E+03  0.86969958428E+03  0.45541432667E+03 0.  0.
      99925    2    3    3    0    0  0.63118019461E+02 -0.76422178462E+02  0.57000818123E+03  0.63585022265E+03  0.26376494315E+03 0.  0.
         25    1    4    4    0    0  0.73564161884E+02 -0.42182466490E+02  0.32579104988E+03  0.35913557701E+03  0.12509000000E+03 0.  0.
         25    1    3    3    0    0 -0.63118019461E+02  0.76422178462E+02  0.17092039695E+03  0.23384936163E+03  0.12509000000E+03 0.  0.
         25    1    4    4    0    0 -0.10446142423E+02 -0.34239711972E+02  0.24421713135E+03  0.27671464564E+03  0.12509000000E+03 0.  0.
<mgrwt>
<rscale>  2 0.45541433E+03</rscale>
<asrwt>0</asrwt>
<pdfrwt beam="1">  1       21 0.11842854E+00 0.45541433E+03</pdfrwt>
<pdfrwt beam="2">  1       21 0.94684568E-02 0.45541433E+03</pdfrwt>
<totfact> 0.44425350E+04</totfact>
</mgrwt>
</event>
<event>
 7    0  0.4709932E-002  0.4527886E+03  0.7546771E-02  0.1026894E+00
         21   -1    0    0  502  501  0.00000000000E+00  0.00000000000E+00  0.66852266602E+02  0.66852266602E+02  0.00000000000E+00 0.  1.
         21   -1    0    0  501  502 -0.00000000000E+00 -0.00000000000E+00 -0.76668131853E+03  0.76668131853E+03  0.00000000000E+00 0.  1.
      99926    2    1    2    0    0  0.35527136788E-14  0.71054273576E-14 -0.69982905193E+03  0.83353358513E+03  0.45278862135E+03 0.  0.
      99925    2    3    3    0    0  0.25325503135E+02  0.44497408178E+02 -0.62267299364E+03  0.67789950829E+03  0.26306783514E+03 0.  0.
         25    1    3    3    0    0 -0.25325503135E+02 -0.44497408178E+02 -0.77156058288E+02  0.15563407684E+03  0.12509000000E+03 0.  0.
         25    1    4    4    0    0  0.21891185240E+02 -0.13447257929E+02 -0.25435551711E+03  0.28461252594E+03  0.12509000000E+03 0.  0.
         25    1    4    4    0    0  0.34343178957E+01  0.57944666107E+02 -0.36831747653E+03  0.39328698235E+03  0.12509000000E+03 0.  0.
<mgrwt>
<rscale>  2 0.45278862E+03</rscale>
<asrwt>0</asrwt>
<pdfrwt beam="1">  1       21 0.98312156E-02 0.45278862E+03</pdfrwt>
<pdfrwt beam="2">  1       21 0.11274725E+00 0.45278862E+03</pdfrwt>
<totfact> 0.46995282E+04</totfact>
</mgrwt>
</event>
<event>
 6    0  0.4709932E-002  0.4542554E+03  0.7546771E-02  0.1026461E+00
         21   -1    0    0  502  501  0.00000000000E+00  0.00000000000E+00  0.11123528290E+03  0.11123528290E+03  0.00000000000E+00 0. -1.
         21   -1    0    0  501  502 -0.00000000000E+00 -0.00000000000E+00 -0.46376457366E+03  0.46376457366E+03  0.00000000000E+00 0. -1.
      99926    2    1    2    0    0  0.00000000000E+00  0.00000000000E+00 -0.35252929076E+03  0.57499985656E+03  0.45425536232E+03 0.  0.
         25    1    3    3    0    0 -0.75607250611E+02 -0.74499597271E+02 -0.16358309257E+03  0.23167559780E+03  0.12509000000E+03 0.  0.
         25    1    3    3    0    0  0.70438334181E+02  0.28000633013E+02 -0.13579625967E+03  0.19958388365E+03  0.12509000000E+03 0.  0.
         25    1    3    3    0    0  0.51689164296E+01  0.46498964258E+02 -0.53149938520E+02  0.14374037512E+03  0.12509000000E+03 0.  0.
<mgrwt>
<rscale>  2 0.45425536E+03</rscale>
<asrwt>0</asrwt>
<pdfrwt beam="1">  1       21 0.16358130E-01 0.45425536E+03</pdfrwt>
<pdfrwt beam="2">  1       21 0.68200671E-01 0.45425536E+03</pdfrwt>
<totfact> 0.60600105E+04</totfact>
</mgrwt>
</event>
<event>
 7    0  0.4709932E-002  0.4531026E+03  0.7546771E-02  0.1026801E+00
         21   -1    0    0  502  501  0.00000000000E+00  0.00000000000E+00  0.36670824584E+03  0.36670824584E+03  0.00000000000E+00 0.  1.
         21   -1    0    0  501  502 -0.00000000000E+00 -0.00000000000E+00 -0.13996274268E+03  0.13996274268E+03  0.00000000000E+00 0.  1.
      99926    2    1    2    0    0  0.00000000000E+00  0.00000000000E+00  0.22674550315E+03  0.50667098852E+03  0.45310260141E+03 0.  0.
      99925    2    3    3    0    0  0.88102035634E+02  0.35901085460E+02  0.20507243731E+03  0.34802645977E+03  0.26460698315E+03 0.  0.
         25    1    4    4    0    0  0.36703087540E+02  0.10835581370E+02  0.15215416721E+03  0.20065623628E+03  0.12509000000E+03 0.  0.
         25    1    3    3    0    0 -0.88102035634E+02 -0.35901085460E+02  0.21673065840E+02  0.15864452875E+03  0.12509000000E+03 0.  0.
         25    1    4    4    0    0  0.51398948093E+02  0.25065504091E+02  0.52918270108E+02  0.14737022349E+03  0.12509000000E+03 0.  0.
<mgrwt>
<rscale>  2 0.45310260E+03</rscale>
<asrwt>0</asrwt>
<pdfrwt beam="1">  1       21 0.53927683E-01 0.45310260E+03</pdfrwt>
<pdfrwt beam="2">  1       21 0.20582756E-01 0.45310260E+03</pdfrwt>
<totfact> 0.65789671E+04</totfact>
</mgrwt>
</event>
<event>
 7    0  0.4709932E-002  0.4539486E+03  0.7546771E-02  0.1026551E+00
         21   -1    0    0  502  501  0.00000000000E+00  0.00000000000E+00  0.87743240536E+02  0.87743240536E+02  0.00000000000E+00 0. -1.
         21   -1    0    0  501  502 -0.00000000000E+00 -0.00000000000E+00 -0.58713744034E+03  0.58713744034E+03  0.00000000000E+00 0. -1.
      99926    2    1    2    0    0 -0.14210854715E-13  0.00000000000E+00 -0.49939419980E+03  0.67488068088E+03  0.45394863875E+03 0.  0.
      99925    2    3    3    0    0  0.73788954793E+02  0.25334333040E+02 -0.19470588950E+03  0.33640008643E+03  0.26299809213E+03 0.  0.
         25    1    3    3    0    0 -0.73788954793E+02 -0.25334333040E+02 -0.30468831030E+03  0.33848059444E+03  0.12509000000E+03 0.  0.
         25    1    4    4    0    0  0.29455073629E+02  0.26828037495E+02 -0.51156710529E+02  0.14089663619E+03  0.12509000000E+03 0.  0.
         25    1    4    4    0    0  0.44333881164E+02 -0.14937044553E+01 -0.14354917897E+03  0.19550345024E+03  0.12509000000E+03 0.  0.
<mgrwt>
<rscale>  2 0.45394864E+03</rscale>
<asrwt>0</asrwt>
<pdfrwt beam="1">  1       21 0.12903418E-01 0.45394864E+03</pdfrwt>
<pdfrwt beam="2">  1       21 0.86343739E-01 0.45394864E+03</pdfrwt>
<totfact> 0.54740643E+04</totfact>
</mgrwt>
</event>
<event>
 7    0  0.4709932E-002  0.4562836E+03  0.7546771E-02  0.1025865E+00
         21   -1    0    0  502  501  0.00000000000E+00  0.00000000000E+00  0.21045774843E+02  0.21045774843E+02  0.00000000000E+00 0. -1.
         21   -1    0    0  501  502 -0.00000000000E+00 -0.00000000000E+00 -0.24731183030E+04  0.24731183030E+04  0.00000000000E+00 0. -1.
      99926    2    1    2    0    0  0.44408920985E-15  0.00000000000E+00 -0.24520725281E+04  0.24941640778E+04  0.45628364408E+03 0.  0.
      99925    2    3    3    0    0  0.37874373101E+01 -0.62287231675E+02 -0.10174641681E+04  0.10527610465E+04  0.26301795329E+03 0.  0.
         25    1    4    4    0    0  0.20928494941E+01 -0.34512196770E+02 -0.35412539403E+03  0.37715749302E+03  0.12509000000E+03 0.  0.
         25    1    3    3    0    0 -0.37874373101E+01  0.62287231675E+02 -0.14346083600E+04  0.14414030313E+04  0.12509000000E+03 0.  0.
         25    1    4    4    0    0  0.16945878160E+01 -0.27775034905E+02 -0.66333877407E+03  0.67560355348E+03  0.12509000000E+03 0.  0.
<mgrwt>
<rscale>  2 0.45628364E+03</rscale>
<asrwt>0</asrwt>
<pdfrwt beam="1">  1       21 0.30949647E-02 0.45628364E+03</pdfrwt>
<pdfrwt beam="2">  1       21 0.36369413E+00 0.45628364E+03</pdfrwt>
<totfact> 0.71203365E+03</totfact>
</mgrwt>
</event>
<event>
 7    0  0.4709932E-002  0.4706492E+03  0.7546771E-02  0.1021737E+00
         21   -1    0    0  502  501  0.00000000000E+00  0.00000000000E+00  0.42681670808E+02  0.42681670808E+02  0.00000000000E+00 0. -1.
         21   -1    0    0  501  502 -0.00000000000E+00 -0.00000000000E+00 -0.12974578546E+04  0.12974578546E+04  0.00000000000E+00 0. -1.
      99926    2    1    2    0    0  0.00000000000E+00  0.00000000000E+00 -0.12547761838E+04  0.13401395254E+04  0.47064920710E+03 0.  0.
      99925    2    3    3    0    0  0.26862435052E+02 -0.49786827005E+02 -0.45453596604E+03  0.52820835051E+03  0.26306044660E+03 0.  0.
         25    1    4    4    0    0  0.47388740367E+02 -0.44622805159E+01 -0.24441730797E+03  0.27866275890E+03  0.12509000000E+03 0.  0.
         25    1    4    4    0    0 -0.20526305314E+02 -0.45324546489E+02 -0.21011865807E+03  0.24954559161E+03  0.12509000000E+03 0.  0.
         25    1    3    3    0    0 -0.26862435052E+02  0.49786827005E+02 -0.80024021772E+03  0.81193117486E+03  0.12509000000E+03 0.  0.
<mgrwt>
<rscale>  2 0.47064921E+03</rscale>
<asrwt>0</asrwt>
<pdfrwt beam="1">  1       21 0.62767166E-02 0.47064921E+03</pdfrwt>
<pdfrwt beam="2">  1       21 0.19080262E+00 0.47064921E+03</pdfrwt>
<totfact> 0.24811309E+04</totfact>
</mgrwt>
</event>
<event>
 7    0  0.4709932E-002  0.4534374E+03  0.7546771E-02  0.1026702E+00
         21   -1    0    0  502  501  0.00000000000E+00  0.00000000000E+00  0.11894840281E+04  0.11894840281E+04  0.00000000000E+00 0.  1.
         21   -1    0    0  501  502 -0.00000000000E+00 -0.00000000000E+00 -0.43213167475E+02  0.43213167475E+02  0.00000000000E+00 0.  1.
      99926    2    1    2    0    0  0.00000000000E+00  0.00000000000E+00  0.11462708606E+04  0.12326971956E+04  0.45343741581E+03 0.  0.
      99925    2    3    3    0    0  0.38576760017E+02 -0.10177827487E+03  0.78990661855E+03  0.83964508099E+03  0.26306731525E+03 0.  0.
         25    1    3    3    0    0 -0.38576760017E+02  0.10177827487E+03  0.35636424205E+03  0.39305211456E+03  0.12509000000E+03 0.  0.
         25    1    4    4    0    0  0.29643004392E+02 -0.93406490832E+02  0.45217629298E+03  0.47928528903E+03  0.12509000000E+03 0.  0.
         25    1    4    4    0    0  0.89337556254E+01 -0.83717840367E+01  0.33773032557E+03  0.36035979197E+03  0.12509000000E+03 0.  0.
<mgrwt>
<rscale>  2 0.45343742E+03</rscale>
<asrwt>0</asrwt>
<pdfrwt beam="1">  1       21 0.17492410E+00 0.45343742E+03</pdfrwt>
<pdfrwt beam="2">  1       21 0.63548783E-02 0.45343742E+03</pdfrwt>
<totfact> 0.31515326E+04</totfact>
</mgrwt>
</event>
<event>
 7    0  0.4709932E-002  0.4547372E+03  0.7546771E-02  0.1026319E+00
         21   -1    0    0  502  501  0.00000000000E+00  0.00000000000E+00  0.59305143762E+03  0.59305143762E+03  0.00000000000E+00 0. -1.
         21   -1    0    0  501  502 -0.00000000000E+00 -0.00000000000E+00 -0.87170326528E+02  0.87170326528E+02  0.00000000000E+00 0. -1.
      99926    2    1    2    0    0 -0.14210854715E-13 -0.35527136788E-14  0.50588111109E+03  0.68022176415E+03  0.45473723166E+03 0.  0.
      99925    2    3    3    0    0 -0.83543262106E+02 -0.61289562473E+01  0.43169111941E+03  0.51238641711E+03  0.26299349254E+03 0.  0.
         25    1    4    4    0    0 -0.15966377590E+02  0.24607455130E+02  0.23390995084E+03  0.26687417496E+03  0.12509000000E+03 0.  0.
         25    1    4    4    0    0 -0.67576884516E+02 -0.30736411378E+02  0.19778116857E+03  0.24551224215E+03  0.12509000000E+03 0.  0.
         25    1    3    3    0    0  0.83543262106E+02  0.61289562473E+01  0.74189991686E+02  0.16783534703E+03  0.12509000000E+03 0.  0.
<mgrwt>
<rscale>  2 0.45473723E+03</rscale>
<asrwt>0</asrwt>
<pdfrwt beam="1">  1       21 0.87213445E-01 0.45473723E+03</pdfrwt>
<pdfrwt beam="2">  1       21 0.12819166E-01 0.45473723E+03</pdfrwt>
<totfact> 0.54102267E+04</totfact>
</mgrwt>
</event>
<event>
 7    0  0.4709932E-002  0.4604989E+03  0.7546771E-02  0.1024637E+00
         21   -1    0    0  502  501  0.00000000000E+00  0.00000000000E+00  0.91232796972E+03  0.91232796972E+03  0.00000000000E+00 0.  1.
         21   -1    0    0  501  502 -0.00000000000E+00 -0.00000000000E+00 -0.58109374559E+02  0.58109374559E+02  0.00000000000E+00 0.  1.
      99926    2    1    2    0    0  0.14210854715E-13  0.00000000000E+00  0.85421859516E+03  0.97043734428E+03  0.46049889343E+03 0.  0.
      99925    2    3    3    0    0 -0.98912584429E+02  0.91144348218E+01  0.67101999364E+03  0.72738177866E+03  0.26258264942E+03 0.  0.
         25    1    4    4    0    0 -0.69853302606E+02  0.83379413174E+01  0.44321673691E+03  0.46587293238E+03  0.12509000000E+03 0.  0.
         25    1    3    3    0    0  0.98912584429E+02 -0.91144348218E+01  0.18319860152E+03  0.24305556562E+03  0.12509000000E+03 0.  0.
         25    1    4    4    0    0 -0.29059281823E+02  0.77649350443E+00  0.22780325673E+03  0.26150884628E+03  0.12509000000E+03 0.  0.
<mgrwt>
<rscale>  2 0.46049889E+03</rscale>
<asrwt>0</asrwt>
<pdfrwt beam="1">  1       21 0.13416587E+00 0.46049889E+03</pdfrwt>
<pdfrwt beam="2">  1       21 0.85454968E-02 0.46049889E+03</pdfrwt>
<totfact> 0.38636223E+04</totfact>
</mgrwt>
</event>
<event>
 7    0  0.4709932E-002  0.4548129E+03  0.7546771E-02  0.1026296E+00
         21   -1    0    0  502  501  0.00000000000E+00  0.00000000000E+00  0.89684078260E+03  0.89684078260E+03  0.00000000000E+00 0. -1.
         21   -1    0    0  501  502 -0.00000000000E+00 -0.00000000000E+00 -0.57662079130E+02  0.57662079130E+02  0.00000000000E+00 0. -1.
      99926    2    1    2    0    0  0.00000000000E+00  0.00000000000E+00  0.83917870347E+03  0.95450286173E+03  0.45481294693E+03 0.  0.
      99925    2    3    3    0    0  0.73729884958E+02 -0.66898760537E+02  0.41507857834E+03  0.50127006908E+03  0.26281155961E+03 0.  0.
         25    1    4    4    0    0  0.53873258671E+02 -0.76866822927E+01  0.25123242180E+03  0.28587873469E+03  0.12509000000E+03 0.  0.
         25    1    4    4    0    0  0.19856626287E+02 -0.59212078245E+02  0.16384615654E+03  0.21539133439E+03  0.12509000000E+03 0.  0.
         25    1    3    3    0    0 -0.73729884958E+02  0.66898760537E+02  0.42410012513E+03  0.45323279265E+03  0.12509000000E+03 0.  0.
<mgrwt>
<rscale>  2 0.45481295E+03</rscale>
<asrwt>0</asrwt>
<pdfrwt beam="1">  1       21 0.13188834E+00 0.45481295E+03</pdfrwt>
<pdfrwt beam="2">  1       21 0.84797180E-02 0.45481295E+03</pdfrwt>
<totfact> 0.41018986E+04</totfact>
</mgrwt>
</event>
<event>
 7    0  0.4709932E-002  0.4583224E+03  0.7546771E-02  0.1025269E+00
         21   -1    0    0  502  501  0.00000000000E+00  0.00000000000E+00  0.28812206607E+03  0.28812206607E+03  0.00000000000E+00 0.  1.
         21   -1    0    0  501  502 -0.00000000000E+00 -0.00000000000E+00 -0.18226600660E+03  0.18226600660E+03  0.00000000000E+00 0.  1.
      99926    2    1    2    0    0  0.00000000000E+00  0.17763568394E-14  0.10585605947E+03  0.47038807267E+03  0.45832241226E+03 0.  0.
      99925    2    3    3    0    0 -0.40784404599E+02  0.84616888612E+01  0.17777343884E+03  0.32020623158E+03  0.26304689192E+03 0.  0.
         25    1    4    4    0    0 -0.51690842823E+02 -0.21978336880E+02  0.91220008804E+02  0.16469240611E+03  0.12509000000E+03 0.  0.
         25    1    4    4    0    0  0.10906438224E+02  0.30440025741E+02  0.86553430040E+02  0.15551382547E+03  0.12509000000E+03 0.  0.
         25    1    3    3    0    0  0.40784404599E+02 -0.84616888612E+01 -0.71917379370E+02  0.15018184109E+03  0.12509000000E+03 0.  0.
<mgrwt>
<rscale>  2 0.45832241E+03</rscale>
<asrwt>0</asrwt>
<pdfrwt beam="1">  1       21 0.42370892E-01 0.45832241E+03</pdfrwt>
<pdfrwt beam="2">  1       21 0.26803825E-01 0.45832241E+03</pdfrwt>
<totfact> 0.65659470E+04</totfact>
</mgrwt>
</event>
<event>
 7    0  0.4709932E-002  0.4544958E+03  0.7546771E-02  0.1026390E+00
         21   -1    0    0  502  501  0.00000000000E+00  0.00000000000E+00  0.11333307033E+04  0.11333307033E+04  0.00000000000E+00 0. -1.
         21   -1    0    0  501  502 -0.00000000000E+00 -0.00000000000E+00 -0.45566225475E+02  0.45566225475E+02  0.00000000000E+00 0. -1.
      99926    2    1    2    0    0  0.00000000000E+00  0.00000000000E+00  0.10877644779E+04  0.11788969288E+04  0.45449577497E+03 0.  0.
      99925    2    3    3    0    0 -0.10253813066E+03  0.38812487209E+02  0.62482617327E+03  0.68698244503E+03  0.26366011371E+03 0.  0.
         25    1    4    4    0    0 -0.38355368311E+02  0.54039624554E+02  0.26657636480E+03  0.30183088257E+03  0.12509000000E+03 0.  0.
         25    1    4    4    0    0 -0.64182762353E+02 -0.15227137345E+02  0.35824980847E+03  0.38515156246E+03  0.12509000000E+03 0.  0.
         25    1    3    3    0    0  0.10253813066E+03 -0.38812487209E+02  0.46293830460E+03  0.49191448380E+03  0.12509000000E+03 0.  0.
<mgrwt>
<rscale>  2 0.45449577E+03</rscale>
<asrwt>0</asrwt>
<pdfrwt beam="1">  1       21 0.16666626E+00 0.45449577E+03</pdfrwt>
<pdfrwt beam="2">  1       21 0.67009162E-02 0.45449577E+03</pdfrwt>
<totfact> 0.32961374E+04</totfact>
</mgrwt>
</event>
<event>
 7    0  0.4709932E-002  0.4501526E+03  0.7546771E-02  0.1027677E+00
         21   -1    0    0  502  501  0.00000000000E+00  0.00000000000E+00  0.31939613954E+02  0.31939613954E+02  0.00000000000E+00 0.  1.
         21   -1    0    0  501  502 -0.00000000000E+00 -0.00000000000E+00 -0.15860976884E+04  0.15860976884E+04  0.00000000000E+00 0.  1.
      99926    2    1    2    0    0  0.00000000000E+00  0.00000000000E+00 -0.15541580744E+04  0.16180373023E+04  0.45015263127E+03 0.  0.
      99925    2    3    3    0    0 -0.14774360506E+02 -0.18192048672E+02 -0.60126972019E+03  0.65668775295E+03  0.26299105706E+03 0.  0.
         25    1    4    4    0    0 -0.40352492159E+02  0.12991221240E+02 -0.28069345838E+03  0.31021512073E+03  0.12509000000E+03 0.  0.
         25    1    4    4    0    0  0.25578131652E+02 -0.31183269913E+02 -0.32057626181E+03  0.34647263222E+03  0.12509000000E+03 0.  0.
         25    1    3    3    0    0  0.14774360506E+02  0.18192048672E+02 -0.95288835422E+03  0.96134954937E+03  0.12509000000E+03 0.  0.
<mgrwt>
<rscale>  2 0.45015263E+03</rscale>
<asrwt>0</asrwt>
<pdfrwt beam="1">  1       21 0.46970008E-02 0.45015263E+03</pdfrwt>
<pdfrwt beam="2">  1       21 0.23324972E+00 0.45015263E+03</pdfrwt>
<totfact> 0.21835599E+04</totfact>
</mgrwt>
</event>
<event>
 7    0  0.4709932E-002  0.4563366E+03  0.7546771E-02  0.1025849E+00
         21   -1    0    0  502  501  0.00000000000E+00  0.00000000000E+00  0.17713098365E+03  0.17713098365E+03  0.00000000000E+00 0. -1.
         21   -1    0    0  501  502 -0.00000000000E+00 -0.00000000000E+00 -0.29391116222E+03  0.29391116222E+03  0.00000000000E+00 0. -1.
      99926    2    1    2    0    0  0.00000000000E+00 -0.14210854715E-13 -0.11678017857E+03  0.47104214587E+03  0.45633660063E+03 0.  0.
      99925    2    3    3    0    0 -0.57608218524E+02  0.94717820459E+02 -0.44377590092E+02  0.28888887175E+03  0.26305367772E+03 0.  0.
         25    1    4    4    0    0 -0.44235236858E+02  0.21822645298E+02 -0.49805630572E+02  0.14339139780E+03  0.12509000000E+03 0.  0.
         25    1    3    3    0    0  0.57608218524E+02 -0.94717820459E+02 -0.72402588483E+02  0.18215327412E+03  0.12509000000E+03 0.  0.
         25    1    4    4    0    0 -0.13372981666E+02  0.72895175161E+02  0.54280404803E+01  0.14549747394E+03  0.12509000000E+03 0.  0.
<mgrwt>
<rscale>  2 0.45633660E+03</rscale>
<asrwt>0</asrwt>
<pdfrwt beam="1">  1       21 0.26048674E-01 0.45633660E+03</pdfrwt>
<pdfrwt beam="2">  1       21 0.43222229E-01 0.45633660E+03</pdfrwt>
<totfact> 0.66648780E+04</totfact>
</mgrwt>
</event>
<event>
 7    0  0.4709932E-002  0.4537906E+03  0.7546771E-02  0.1026598E+00
         21   -1    0    0  502  501  0.00000000000E+00  0.00000000000E+00  0.89055731904E+02  0.89055731904E+02  0.00000000000E+00 0.  1.
         21   -1    0    0  501  502 -0.00000000000E+00 -0.00000000000E+00 -0.57808156246E+03  0.57808156246E+03  0.00000000000E+00 0.  1.
      99926    2    1    2    0    0 -0.71054273576E-14  0.00000000000E+00 -0.48902583055E+03  0.66713729436E+03  0.45379059772E+03 0.  0.
      99925    2    3    3    0    0  0.43618413942E+02  0.99523602286E+02 -0.26771640137E+03  0.39067231468E+03  0.26295488671E+03 0.  0.
         25    1    4    4    0    0  0.39708169259E+02  0.89327810926E+02 -0.14219779337E+03  0.21312887428E+03  0.12509000000E+03 0.  0.
         25    1    3    3    0    0 -0.43618413942E+02 -0.99523602286E+02 -0.22130942918E+03  0.27646497968E+03  0.12509000000E+03 0.  0.
         25    1    4    4    0    0  0.39102446828E+01  0.10195791360E+02 -0.12551860800E+03  0.17754344040E+03  0.12509000000E+03 0.  0.
<mgrwt>
<rscale>  2 0.45379060E+03</rscale>
<asrwt>0</asrwt>
<pdfrwt beam="1">  1       21 0.13096432E-01 0.45379060E+03</pdfrwt>
<pdfrwt beam="2">  1       21 0.85011992E-01 0.45379060E+03</pdfrwt>
<totfact> 0.55248568E+04</totfact>
</mgrwt>
</event>
<event>
 7    0  0.4709932E-002  0.4270551E+03  0.7546771E-02  0.1034794E+00
         21   -1    0    0  502  501  0.00000000000E+00  0.00000000000E+00  0.17214970357E+03  0.17214970357E+03  0.00000000000E+00 0. -1.
         21   -1    0    0  501  502 -0.00000000000E+00 -0.00000000000E+00 -0.26485101520E+03  0.26485101520E+03  0.00000000000E+00 0. -1.
      99926    2    1    2    0    0  0.00000000000E+00 -0.17763568394E-14 -0.92701311630E+02  0.43700071877E+03  0.42705514284E+03 0.  0.
      99925    2    3    3    0    0 -0.75202012470E+02  0.92234882730E+01 -0.22813467777E+02  0.27491359950E+03  0.26328049199E+03 0.  0.
         25    1    4    4    0    0 -0.67821103800E+02  0.31334025703E+02 -0.34782497433E+00  0.14570227304E+03  0.12509000000E+03 0.  0.
         25    1    4    4    0    0 -0.73809086699E+01 -0.22110537430E+02 -0.22465642803E+02  0.12921132646E+03  0.12509000000E+03 0.  0.
         25    1    3    3    0    0  0.75202012470E+02 -0.92234882730E+01 -0.69887843853E+02  0.16208711927E+03  0.12509000000E+03 0.  0.
<mgrwt>
<rscale>  2 0.42705514E+03</rscale>
<asrwt>0</asrwt>
<pdfrwt beam="1">  1       21 0.25316133E-01 0.42705514E+03</pdfrwt>
<pdfrwt beam="2">  1       21 0.38948678E-01 0.42705514E+03</pdfrwt>
<totfact> 0.87892987E+04</totfact>
</mgrwt>
</event>
<event>
 7    0  0.4709932E-002  0.4466827E+03  0.7546771E-02  0.1028716E+00
         21   -1    0    0  502  501  0.00000000000E+00  0.00000000000E+00  0.31841808937E+02  0.31841808937E+02  0.00000000000E+00 0.  1.
         21   -1    0    0  501  502 -0.00000000000E+00 -0.00000000000E+00 -0.15665368250E+04  0.15665368250E+04  0.00000000000E+00 0.  1.
      99926    2    1    2    0    0 -0.71054273576E-14  0.00000000000E+00 -0.15346950160E+04  0.15983786339E+04  0.44668273427E+03 0.  0.
      99925    2    3    3    0    0  0.44764045443E+02  0.37673672606E+02 -0.12859996061E+04  0.13139141539E+04  0.26296823292E+03 0.  0.
         25    1    4    4    0    0  0.61461071148E+02  0.14458730019E+02 -0.61571991440E+03  0.63146261903E+03  0.12509000000E+03 0.  0.
         25    1    3    3    0    0 -0.44764045443E+02 -0.37673672606E+02 -0.24869540995E+03  0.28446448003E+03  0.12509000000E+03 0.  0.
         25    1    4    4    0    0 -0.16697025706E+02  0.23214942587E+02 -0.67027969169E+03  0.68245153485E+03  0.12509000000E+03 0.  0.
<mgrwt>
<rscale>  2 0.44668273E+03</rscale>
<asrwt>0</asrwt>
<pdfrwt beam="1">  1       21 0.46826195E-02 0.44668273E+03</pdfrwt>
<pdfrwt beam="2">  1       21 0.23037304E+00 0.44668273E+03</pdfrwt>
<totfact> 0.22910794E+04</totfact>
</mgrwt>
</event>
<event>
 7    0  0.4709932E-002  0.4476689E+03  0.7546771E-02  0.1028419E+00
         21   -1    0    0  502  501  0.00000000000E+00  0.00000000000E+00  0.12700386682E+04  0.12700386682E+04  0.00000000000E+00 0.  1.
         21   -1    0    0  501  502 -0.00000000000E+00 -0.00000000000E+00 -0.39449087924E+02  0.39449087924E+02  0.00000000000E+00 0.  1.
      99926    2    1    2    0    0  0.00000000000E+00  0.00000000000E+00  0.12305895803E+04  0.13094877561E+04  0.44766892717E+03 0.  0.
      99925    2    3    3    0    0 -0.74356079758E+02  0.75717471180E+02  0.77719128322E+03  0.82732649066E+03  0.26302256443E+03 0.  0.
         25    1    4    4    0    0 -0.52926454936E+02  0.26509708191E+01  0.33416952123E+03  0.36072844952E+03  0.12509000000E+03 0.  0.
         25    1    4    4    0    0 -0.21429624822E+02  0.73066500361E+02  0.44302176199E+03  0.46659804113E+03  0.12509000000E+03 0.  0.
         25    1    3    3    0    0  0.74356079758E+02 -0.75717471180E+02  0.45339829705E+03  0.48216126546E+03  0.12509000000E+03 0.  0.
<mgrwt>
<rscale>  2 0.44766893E+03</rscale>
<asrwt>0</asrwt>
<pdfrwt beam="1">  1       21 0.18677037E+00 0.44766893E+03</pdfrwt>
<pdfrwt beam="2">  1       21 0.58013373E-02 0.44766893E+03</pdfrwt>
<totfact> 0.30545005E+04</totfact>
</mgrwt>
</event>
<event>
 7    0  0.4709932E-002  0.4482934E+03  0.7546771E-02  0.1028232E+00
         21   -1    0    0  502  501  0.00000000000E+00  0.00000000000E+00  0.94168936825E+02  0.94168936825E+02  0.00000000000E+00 0.  1.
         21   -1    0    0  501  502 -0.00000000000E+00 -0.00000000000E+00 -0.53352770170E+03  0.53352770170E+03  0.00000000000E+00 0.  1.
      99926    2    1    2    0    0  0.00000000000E+00  0.00000000000E+00 -0.43935876487E+03  0.62769663852E+03  0.44829337018E+03 0.  0.
      99925    2    3    3    0    0 -0.24366184330E+02  0.66917370595E+02 -0.16705355947E+03  0.31968806978E+03  0.26310059826E+03 0.  0.
         25    1    3    3    0    0  0.24366184330E+02 -0.66917370595E+02 -0.27230520540E+03  0.30800856874E+03  0.12509000000E+03 0.  0.
         25    1    4    4    0    0  0.19190555234E+01  0.30212289327E+02 -0.12697037863E+03  0.18079117885E+03  0.12509000000E+03 0.  0.
         25    1    4    4    0    0 -0.26285239854E+02  0.36705081268E+02 -0.40083180837E+02  0.13889689093E+03  0.12509000000E+03 0.  0.
<mgrwt>
<rscale>  2 0.44829337E+03</rscale>
<asrwt>0</asrwt>
<pdfrwt beam="1">  1       21 0.13848373E-01 0.44829337E+03</pdfrwt>
<pdfrwt beam="2">  1       21 0.78459958E-01 0.44829337E+03</pdfrwt>
<totfact> 0.60125660E+04</totfact>
</mgrwt>
</event>
<event>
 7    0  0.4709932E-002  0.4524902E+03  0.7546771E-02  0.1026982E+00
         21   -1    0    0  502  501  0.00000000000E+00  0.00000000000E+00  0.58211106902E+03  0.58211106902E+03  0.00000000000E+00 0. -1.
         21   -1    0    0  501  502 -0.00000000000E+00 -0.00000000000E+00 -0.87933114017E+02  0.87933114017E+02  0.00000000000E+00 0. -1.
      99926    2    1    2    0    0  0.71054273576E-14  0.00000000000E+00  0.49417795500E+03  0.67004418304E+03  0.45249017228E+03 0.  0.
      99925    2    3    3    0    0  0.41552768868E+02 -0.72876645025E+02  0.20492263161E+03  0.34392489780E+03  0.26316043090E+03 0.  0.
         25    1    3    3    0    0 -0.41552768868E+02  0.72876645025E+02  0.28925532339E+03  0.32611928523E+03  0.12509000000E+03 0.  0.
         25    1    4    4    0    0  0.92617395143E+01 -0.76182902626E+02  0.11580600465E+03  0.18694425181E+03  0.12509000000E+03 0.  0.
         25    1    4    4    0    0  0.32291029353E+02  0.33062576007E+01  0.89116626962E+02  0.15698064600E+03  0.12509000000E+03 0.  0.
<mgrwt>
<rscale>  2 0.45249017E+03</rscale>
<asrwt>0</asrwt>
<pdfrwt beam="1">  1       21 0.85604567E-01 0.45249017E+03</pdfrwt>
<pdfrwt beam="2">  1       21 0.12931341E-01 0.45249017E+03</pdfrwt>
<totfact> 0.55652728E+04</totfact>
</mgrwt>
</event>
<event>
 7    0  0.4709932E-002  0.4520535E+03  0.7546771E-02  0.1027111E+00
         21   -1    0    0  502  501  0.00000000000E+00  0.00000000000E+00  0.11074049916E+03  0.11074049916E+03  0.00000000000E+00 0. -1.
         21   -1    0    0  501  502 -0.00000000000E+00 -0.00000000000E+00 -0.46133169731E+03  0.46133169731E+03  0.00000000000E+00 0. -1.
      99926    2    1    2    0    0  0.00000000000E+00  0.00000000000E+00 -0.35059119815E+03  0.57207219647E+03  0.45205354744E+03 0.  0.
      99925    2    3    3    0    0  0.68094924654E+02 -0.28798937760E+02 -0.11740222324E+03  0.29731611610E+03  0.26295872926E+03 0.  0.
         25    1    3    3    0    0 -0.68094924654E+02  0.28798937760E+02 -0.23318897491E+03  0.27475608037E+03  0.12509000000E+03 0.  0.
         25    1    4    4    0    0  0.97739544062E+01 -0.30740441311E+02 -0.87661863241E+02  0.15611731257E+03  0.12509000000E+03 0.  0.
         25    1    4    4    0    0  0.58320970247E+02  0.19415035510E+01 -0.29740359995E+02  0.14119880353E+03  0.12509000000E+03 0.  0.
<mgrwt>
<rscale>  2 0.45205355E+03</rscale>
<asrwt>0</asrwt>
<pdfrwt beam="1">  1       21 0.16285367E-01 0.45205355E+03</pdfrwt>
<pdfrwt beam="2">  1       21 0.67842897E-01 0.45205355E+03</pdfrwt>
<totfact> 0.61859789E+04</totfact>
</mgrwt>
</event>
<event>
 7    0  0.4709932E-002  0.4500453E+03  0.7546771E-02  0.1027709E+00
         21   -1    0    0  502  501  0.00000000000E+00  0.00000000000E+00  0.15682808939E+03  0.15682808939E+03  0.00000000000E+00 0. -1.
         21   -1    0    0  501  502 -0.00000000000E+00 -0.00000000000E+00 -0.32287064101E+03  0.32287064101E+03  0.00000000000E+00 0. -1.
      99926    2    1    2    0    0  0.00000000000E+00 -0.53290705182E-14 -0.16604255163E+03  0.47969873040E+03  0.45004526772E+03 0.  0.
      99925    2    3    3    0    0 -0.88053189679E+02  0.28404555655E+01 -0.38851750807E+02  0.28073531589E+03  0.26370708493E+03 0.  0.
         25    1    4    4    0    0 -0.26401936560E+02  0.39552021325E+02 -0.19084554310E+02  0.13517822664E+03  0.12509000000E+03 0.  0.
         25    1    4    4    0    0 -0.61651253120E+02 -0.36711565760E+02 -0.19767196497E+02  0.14555708924E+03  0.12509000000E+03 0.  0.
         25    1    3    3    0    0  0.88053189679E+02 -0.28404555655E+01 -0.12719080082E+03  0.19896341451E+03  0.12509000000E+03 0.  0.
<mgrwt>
<rscale>  2 0.45004527E+03</rscale>
<asrwt>0</asrwt>
<pdfrwt beam="1">  1       21 0.23062955E-01 0.45004527E+03</pdfrwt>
<pdfrwt beam="2">  1       21 0.47480976E-01 0.45004527E+03</pdfrwt>
<totfact> 0.69412145E+04</totfact>
</mgrwt>
</event>
<event>
 7    0  0.4709932E-002  0.4571582E+03  0.7546771E-02  0.1025609E+00
         21   -1    0    0  502  501  0.00000000000E+00  0.00000000000E+00  0.60106406978E+03  0.60106406978E+03  0.00000000000E+00 0. -1.
         21   -1    0    0  501  502 -0.00000000000E+00 -0.00000000000E+00 -0.86926506475E+02  0.86926506475E+02  0.00000000000E+00 0. -1.
      99926    2    1    2    0    0  0.14210854715E-13  0.00000000000E+00  0.51413756330E+03  0.68799057625E+03  0.45715817724E+03 0.  0.
      99925    2    3    3    0    0  0.10672520647E+03 -0.79872745675E+01  0.38691775518E+03  0.47993660746E+03  0.26302040160E+03 0.  0.
         25    1    4    4    0    0  0.12525860094E+02 -0.17902819044E+02  0.17843229162E+03  0.21900456364E+03  0.12509000000E+03 0.  0.
         25    1    4    4    0    0  0.94199346375E+02  0.99155444768E+01  0.20848546356E+03  0.26093204382E+03  0.12509000000E+03 0.  0.
         25    1    3    3    0    0 -0.10672520647E+03  0.79872745675E+01  0.12721980813E+03  0.20805396879E+03  0.12509000000E+03 0.  0.
<mgrwt>
<rscale>  2 0.45715818E+03</rscale>
<asrwt>0</asrwt>
<pdfrwt beam="1">  1       21 0.88391773E-01 0.45715818E+03</pdfrwt>
<pdfrwt beam="2">  1       21 0.12783310E-01 0.45715818E+03</pdfrwt>
<totfact> 0.52659586E+04</totfact>
</mgrwt>
</event>
<event>
 7    0  0.4709932E-002  0.4431738E+03  0.7546771E-02  0.1029777E+00
         21   -1    0    0  502  501  0.00000000000E+00  0.00000000000E+00  0.19575038973E+03  0.19575038973E+03  0.00000000000E+00 0. -1.
         21   -1    0    0  501  502 -0.00000000000E+00 -0.00000000000E+00 -0.25083353752E+03  0.25083353752E+03  0.00000000000E+00 0. -1.
      99926    2    1    2    0    0  0.71054273576E-14  0.00000000000E+00 -0.55083147786E+02  0.44658392725E+03  0.44317383825E+03 0.  0.
      99925    2    3    3    0    0 -0.51011056800E+02  0.65010845421E+02  0.24030179531E+02  0.27707002046E+03  0.26336630151E+03 0.  0.
         25    1    4    4    0    0 -0.14486480819E+02 -0.41052819386E+01 -0.75518153675E+01  0.12621905356E+03  0.12509000000E+03 0.  0.
         25    1    3    3    0    0  0.51011056800E+02 -0.65010845421E+02 -0.79113327318E+02  0.16951390680E+03  0.12509000000E+03 0.  0.
         25    1    4    4    0    0 -0.36524575981E+02  0.69116127360E+02  0.31581994899E+02  0.15085096690E+03  0.12509000000E+03 0.  0.
<mgrwt>
<rscale>  2 0.44317384E+03</rscale>
<asrwt>0</asrwt>
<pdfrwt beam="1">  1       21 0.28786822E-01 0.44317384E+03</pdfrwt>
<pdfrwt beam="2">  1       21 0.36887285E-01 0.44317384E+03</pdfrwt>
<totfact> 0.76097136E+04</totfact>
</mgrwt>
</event>
<event>
 7    0  0.4709932E-002  0.4598832E+03  0.7546771E-02  0.1024815E+00
         21   -1    0    0  502  501  0.00000000000E+00  0.00000000000E+00  0.91248266326E+02  0.91248266326E+02  0.00000000000E+00 0.  1.
         21   -1    0    0  501  502 -0.00000000000E+00 -0.00000000000E+00 -0.57944277353E+03  0.57944277353E+03  0.00000000000E+00 0.  1.
      99926    2    1    2    0    0  0.00000000000E+00  0.00000000000E+00 -0.48819450721E+03  0.67069103986E+03  0.45988323962E+03 0.  0.
      99925    2    3    3    0    0  0.61669832429E+02 -0.92721778111E+02 -0.36081383991E+03  0.46027754488E+03  0.26318870585E+03 0.  0.
         25    1    3    3    0    0 -0.61669832429E+02  0.92721778111E+02 -0.12738066730E+03  0.21041349498E+03  0.12509000000E+03 0.  0.
         25    1    4    4    0    0  0.22958579711E+02 -0.14828067953E+02 -0.20961507448E+03  0.24562767664E+03  0.12509000000E+03 0.  0.
         25    1    4    4    0    0  0.38711252718E+02 -0.77893710158E+02 -0.15119876542E+03  0.21464986824E+03  0.12509000000E+03 0.  0.
<mgrwt>
<rscale>  2 0.45988324E+03</rscale>
<asrwt>0</asrwt>
<pdfrwt beam="1">  1       21 0.13418862E-01 0.45988324E+03</pdfrwt>
<pdfrwt beam="2">  1       21 0.85212176E-01 0.45988324E+03</pdfrwt>
<totfact> 0.52474051E+04</totfact>
</mgrwt>
</event>
<event>
 7    0  0.4709932E-002  0.4830580E+03  0.7546771E-02  0.1018298E+00
         21   -1    0    0  502  501  0.00000000000E+00  0.00000000000E+00  0.80107452073E+02  0.80107452073E+02  0.00000000000E+00 0.  1.
         21   -1    0    0  501  502 -0.00000000000E+00 -0.00000000000E+00 -0.72822514509E+03  0.72822514509E+03  0.00000000000E+00 0.  1.
      99926    2    1    2    0    0  0.00000000000E+00  0.00000000000E+00 -0.64811769301E+03  0.80833259716E+03  0.48305801270E+03 0.  0.
      99925    2    3    3    0    0 -0.50802061545E+02 -0.12763264150E+03 -0.41722683975E+03  0.51197295946E+03  0.26299645393E+03 0.  0.
         25    1    4    4    0    0 -0.28453141287E+02 -0.37075515372E+02 -0.13751605938E+03  0.19168294076E+03  0.12509000000E+03 0.  0.
         25    1    4    4    0    0 -0.22348920258E+02 -0.90557126130E+02 -0.27971078036E+03  0.32029001870E+03  0.12509000000E+03 0.  0.
         25    1    3    3    0    0  0.50802061545E+02  0.12763264150E+03 -0.23089085327E+03  0.29635963770E+03  0.12509000000E+03 0.  0.
<mgrwt>
<rscale>  2 0.48305801E+03</rscale>
<asrwt>0</asrwt>
<pdfrwt beam="1">  1       21 0.11780507E-01 0.48305801E+03</pdfrwt>
<pdfrwt beam="2">  1       21 0.10709194E+00 0.48305801E+03</pdfrwt>
<totfact> 0.38226599E+04</totfact>
</mgrwt>
</event>
<event>
 7    0  0.4709932E-002  0.4300423E+03  0.7546771E-02  0.1033847E+00
         21   -1    0    0  502  501  0.00000000000E+00  0.00000000000E+00  0.36324117318E+03  0.36324117318E+03  0.00000000000E+00 0. -1.
         21   -1    0    0  501  502 -0.00000000000E+00 -0.00000000000E+00 -0.12728209330E+03  0.12728209330E+03  0.00000000000E+00 0. -1.
      99926    2    1    2    0    0  0.00000000000E+00 -0.71054273576E-14  0.23595907988E+03  0.49052326648E+03  0.43004230906E+03 0.  0.
      99925    2    3    3    0    0 -0.78789475386E+02  0.36355841161E+02  0.16515800004E+03  0.32262499482E+03  0.26321130996E+03 0.  0.
         25    1    4    4    0    0 -0.36389196515E+02 -0.14808255793E+02  0.10805950332E+03  0.16990533370E+03  0.12509000000E+03 0.  0.
         25    1    3    3    0    0  0.78789475386E+02 -0.36355841161E+02  0.70801079840E+02  0.16789827166E+03  0.12509000000E+03 0.  0.
         25    1    4    4    0    0 -0.42400278872E+02  0.51164096954E+02  0.57098496713E+02  0.15271966112E+03  0.12509000000E+03 0.  0.
<mgrwt>
<rscale>  2 0.43004231E+03</rscale>
<asrwt>0</asrwt>
<pdfrwt beam="1">  1       21 0.53417819E-01 0.43004231E+03</pdfrwt>
<pdfrwt beam="2">  1       21 0.18717955E-01 0.43004231E+03</pdfrwt>
<totfact> 0.80799667E+04</totfact>
</mgrwt>
</event>
<event>
 7    0  0.4709932E-002  0.4576700E+03  0.7546771E-02  0.1025459E+00
         21   -1    0    0  502  501  0.00000000000E+00  0.00000000000E+00  0.90854239720E+02  0.90854239720E+02  0.00000000000E+00 0.  1.
         21   -1    0    0  501  502 -0.00000000000E+00 -0.00000000000E+00 -0.57636783077E+03  0.57636783077E+03  0.00000000000E+00 0.  1.
      99926    2    1    2    0    0  0.00000000000E+00  0.00000000000E+00 -0.48551359105E+03  0.66722207049E+03  0.45767001677E+03 0.  0.
      99925    2    3    3    0    0  0.50224822240E+02 -0.94764655293E+02 -0.36970366314E+03  0.46582117634E+03  0.26230840079E+03 0.  0.
         25    1    4    4    0    0  0.52525906951E+02 -0.28524659006E+02 -0.14813668700E+03  0.20289064347E+03  0.12509000000E+03 0.  0.
         25    1    3    3    0    0 -0.50224822240E+02  0.94764655293E+02 -0.11580992791E+03  0.20140089415E+03  0.12509000000E+03 0.  0.
         25    1    4    4    0    0 -0.23010847108E+01 -0.66239996287E+02 -0.22156697614E+03  0.26293053287E+03  0.12509000000E+03 0.  0.
<mgrwt>
<rscale>  2 0.45767002E+03</rscale>
<asrwt>0</asrwt>
<pdfrwt beam="1">  1       21 0.13360917E-01 0.45767002E+03</pdfrwt>
<pdfrwt beam="2">  1       21 0.84759977E-01 0.45767002E+03</pdfrwt>
<totfact> 0.53582043E+04</totfact>
</mgrwt>
</event>
<event>
 7    0  0.4709932E-002  0.4550912E+03  0.7546771E-02  0.1026215E+00
         21   -1    0    0  502  501  0.00000000000E+00  0.00000000000E+00  0.81078438330E+03  0.81078438330E+03  0.00000000000E+00 0.  1.
         21   -1    0    0  501  502 -0.00000000000E+00 -0.00000000000E+00 -0.63860372522E+02  0.63860372522E+02  0.00000000000E+00 0.  1.
      99926    2    1    2    0    0  0.00000000000E+00 -0.71054273576E-14  0.74692401077E+03  0.87464475582E+03  0.45509116780E+03 0.  0.
      99925    2    3    3    0    0 -0.60128103872E+02  0.19062726396E+02  0.65074084532E+03  0.70471098687E+03  0.26301169334E+03 0.  0.
         25    1    4    4    0    0 -0.41936783590E+02  0.38230786891E+02  0.40568969941E+03  0.42831288469E+03  0.12509000000E+03 0.  0.
         25    1    4    4    0    0 -0.18191320281E+02 -0.19168060495E+02  0.24505114590E+03  0.27639810217E+03  0.12509000000E+03 0.  0.
         25    1    3    3    0    0  0.60128103872E+02 -0.19062726396E+02  0.96183165457E+02  0.16993376895E+03  0.12509000000E+03 0.  0.
<mgrwt>
<rscale>  2 0.45509117E+03</rscale>
<asrwt>0</asrwt>
<pdfrwt beam="1">  1       21 0.11923299E+00 0.45509117E+03</pdfrwt>
<pdfrwt beam="2">  1       21 0.93912317E-02 0.45509117E+03</pdfrwt>
<totfact> 0.44316496E+04</totfact>
</mgrwt>
</event>
<event>
 7    0  0.4709932E-002  0.4541754E+03  0.7546771E-02  0.1026484E+00
         21   -1    0    0  502  501  0.00000000000E+00  0.00000000000E+00  0.10426839882E+04  0.10426839882E+04  0.00000000000E+00 0. -1.
         21   -1    0    0  501  502 -0.00000000000E+00 -0.00000000000E+00 -0.49457759089E+02  0.49457759089E+02  0.00000000000E+00 0. -1.
      99926    2    1    2    0    0  0.00000000000E+00  0.00000000000E+00  0.99322622909E+03  0.10921417473E+04  0.45417535597E+03 0.  0.
      99925    2    3    3    0    0  0.68197804007E+02 -0.88502617388E+02  0.62588269632E+03  0.68831946839E+03  0.26376293759E+03 0.  0.
         25    1    4    4    0    0  0.26028248555E+02 -0.49786239348E+02  0.21488774909E+03  0.25491251864E+03  0.12509000000E+03 0.  0.
         25    1    3    3    0    0 -0.68197804007E+02  0.88502617388E+02  0.36734353277E+03  0.40382227888E+03  0.12509000000E+03 0.  0.
         25    1    4    4    0    0  0.42169555452E+02 -0.38716378040E+02  0.41099494723E+03  0.43340694974E+03  0.12509000000E+03 0.  0.
<mgrwt>
<rscale>  2 0.45417536E+03</rscale>
<asrwt>0</asrwt>
<pdfrwt beam="1">  1       21 0.15333587E+00 0.45417536E+03</pdfrwt>
<pdfrwt beam="2">  1       21 0.72732006E-02 0.45417536E+03</pdfrwt>
<totfact> 0.35998993E+04</totfact>
</mgrwt>
</event>
<event>
 7    0  0.4709932E-002  0.4488323E+03  0.7546771E-02  0.1028071E+00
         21   -1    0    0  502  501  0.00000000000E+00  0.00000000000E+00  0.54951475476E+03  0.54951475476E+03  0.00000000000E+00 0.  1.
         21   -1    0    0  501  502 -0.00000000000E+00 -0.00000000000E+00 -0.91649244922E+02  0.91649244922E+02  0.00000000000E+00 0.  1.
      99926    2    1    2    0    0  0.00000000000E+00  0.14210854715E-13  0.45786550984E+03  0.64116399968E+03  0.44883231767E+03 0.  0.
      99925    2    3    3    0    0 -0.46731672617E+02  0.90923041806E+02  0.33721254090E+03  0.43953191947E+03  0.26272640091E+03 0.  0.
         25    1    4    4    0    0  0.83804146403E+01  0.43915656136E+02  0.20090275162E+03  0.24084899815E+03  0.12509000000E+03 0.  0.
         25    1    3    3    0    0  0.46731672617E+02 -0.90923041806E+02  0.12065296894E+03  0.20163208021E+03  0.12509000000E+03 0.  0.
         25    1    4    4    0    0 -0.55112087258E+02  0.47007385670E+02  0.13630978928E+03  0.19868292132E+03  0.12509000000E+03 0.  0.
<mgrwt>
<rscale>  2 0.44883232E+03</rscale>
<asrwt>0</asrwt>
<pdfrwt beam="1">  1       21 0.80810992E-01 0.44883232E+03</pdfrwt>
<pdfrwt beam="2">  1       21 0.13477830E-01 0.44883232E+03</pdfrwt>
<totfact> 0.59034491E+04</totfact>
</mgrwt>
</event>
<event>
 7    0  0.4709932E-002  0.4410937E+03  0.7546771E-02  0.1030412E+00
         21   -1    0    0  502  501  0.00000000000E+00  0.00000000000E+00  0.77761938900E+02  0.77761938900E+02  0.00000000000E+00 0. -1.
         21   -1    0    0  501  502 -0.00000000000E+00 -0.00000000000E+00 -0.62551065330E+03  0.62551065330E+03  0.00000000000E+00 0. -1.
      99926    2    1    2    0    0  0.88817841970E-15  0.00000000000E+00 -0.54774871440E+03  0.70327259220E+03  0.44109373699E+03 0.  0.
      99925    2    3    3    0    0  0.73790006438E+01  0.82867057632E+02 -0.43617496497E+03  0.51614266794E+03  0.26312212889E+03 0.  0.
         25    1    4    4    0    0  0.30183954232E+02  0.16782767281E+02 -0.24472669135E+03  0.27700432114E+03  0.12509000000E+03 0.  0.
         25    1    4    4    0    0 -0.22804953588E+02  0.66084290351E+02 -0.19144827363E+03  0.23913834681E+03  0.12509000000E+03 0.  0.
         25    1    3    3    0    0 -0.73790006438E+01 -0.82867057632E+02 -0.11157374943E+03  0.18712992426E+03  0.12509000000E+03 0.  0.
<mgrwt>
<rscale>  2 0.44109374E+03</rscale>
<asrwt>0</asrwt>
<pdfrwt beam="1">  1       21 0.11435579E-01 0.44109374E+03</pdfrwt>
<pdfrwt beam="2">  1       21 0.91986864E-01 0.44109374E+03</pdfrwt>
<totfact> 0.58912406E+04</totfact>
</mgrwt>
</event>
<event>
 7    0  0.4709932E-002  0.4565629E+03  0.7546771E-02  0.1025783E+00
         21   -1    0    0  502  501  0.00000000000E+00  0.00000000000E+00  0.27586539296E+03  0.27586539296E+03  0.00000000000E+00 0.  1.
         21   -1    0    0  501  502 -0.00000000000E+00 -0.00000000000E+00 -0.18890525731E+03  0.18890525731E+03  0.00000000000E+00 0.  1.
      99926    2    1    2    0    0  0.00000000000E+00  0.00000000000E+00  0.86960135653E+02  0.46477065027E+03  0.45656291151E+03 0.  0.
      99925    2    3    3    0    0 -0.86975724581E+02  0.52875560184E+02  0.91674872904E+00  0.28198231896E+03  0.26296879330E+03 0.  0.
         25    1    4    4    0    0 -0.74999794916E+02  0.21471047788E+02  0.26948449313E+02  0.14986561364E+03  0.12509000000E+03 0.  0.
         25    1    3    3    0    0  0.86975724581E+02 -0.52875560184E+02  0.86043386924E+02  0.18278833131E+03  0.12509000000E+03 0.  0.
         25    1    4    4    0    0 -0.11975929665E+02  0.31404512396E+02 -0.26031700584E+02  0.13211670532E+03  0.12509000000E+03 0.  0.
<mgrwt>
<rscale>  2 0.45656291E+03</rscale>
<asrwt>0</asrwt>
<pdfrwt beam="1">  1       21 0.40568440E-01 0.45656291E+03</pdfrwt>
<pdfrwt beam="2">  1       21 0.27780185E-01 0.45656291E+03</pdfrwt>
<totfact> 0.66991032E+04</totfact>
</mgrwt>
</event>
<event>
 7    0  0.4709932E-002  0.4428909E+03  0.7546771E-02  0.1029863E+00
         21   -1    0    0  502  501  0.00000000000E+00  0.00000000000E+00  0.21596217652E+04  0.21596217652E+04  0.00000000000E+00 0.  1.
         21   -1    0    0  501  502 -0.00000000000E+00 -0.00000000000E+00 -0.22706798095E+02  0.22706798095E+02  0.00000000000E+00 0.  1.
      99926    2    1    2    0    0 -0.14210854715E-13  0.00000000000E+00  0.21369149671E+04  0.21823285633E+04  0.44289093639E+03 0.  0.
      99925    2    3    3    0    0 -0.64367964501E+02 -0.78486932744E+02  0.13158136251E+04  0.13455739066E+04  0.26248849271E+03 0.  0.
         25    1    3    3    0    0  0.64367964501E+02  0.78486932744E+02  0.82110134207E+03  0.83675465670E+03  0.12509000000E+03 0.  0.
         25    1    4    4    0    0 -0.24720558422E+01 -0.28808606281E+02  0.48784492110E+03  0.50445636283E+03  0.12509000000E+03 0.  0.
         25    1    4    4    0    0 -0.61895908658E+02 -0.49678326463E+02  0.82796870397E+03  0.84111754380E+03  0.12509000000E+03 0.  0.
<mgrwt>
<rscale>  2 0.44289094E+03</rscale>
<asrwt>0</asrwt>
<pdfrwt beam="1">  1       21 0.31759129E+00 0.44289094E+03</pdfrwt>
<pdfrwt beam="2">  1       21 0.33392365E-02 0.44289094E+03</pdfrwt>
<totfact> 0.12048950E+04</totfact>
</mgrwt>
</event>
<event>
 7    0  0.4709932E-002  0.4553662E+03  0.7546771E-02  0.1026134E+00
         21   -1    0    0  502  501  0.00000000000E+00  0.00000000000E+00  0.94608546345E+02  0.94608546345E+02  0.00000000000E+00 0. -1.
         21   -1    0    0  501  502 -0.00000000000E+00 -0.00000000000E+00 -0.54793783678E+03  0.54793783678E+03  0.00000000000E+00 0. -1.
      99926    2    1    2    0    0  0.00000000000E+00  0.00000000000E+00 -0.45332929043E+03  0.64254638312E+03  0.45536623601E+03 0.  0.
      99925    2    3    3    0    0 -0.15467998065E+02 -0.52644963451E+02 -0.14491329039E+03  0.30523541632E+03  0.26297917504E+03 0.  0.
         25    1    4    4    0    0  0.19853006181E+02 -0.64523323885E+00 -0.87398019879E+02  0.15388463263E+03  0.12509000000E+03 0.  0.
         25    1    3    3    0    0  0.15467998065E+02  0.52644963451E+02 -0.30841600004E+03  0.33731096680E+03  0.12509000000E+03 0.  0.
         25    1    4    4    0    0 -0.35321004246E+02 -0.51999730212E+02 -0.57515270512E+02  0.15135078370E+03  0.12509000000E+03 0.  0.
<mgrwt>
<rscale>  2 0.45536624E+03</rscale>
<asrwt>0</asrwt>
<pdfrwt beam="1">  1       21 0.13913022E-01 0.45536624E+03</pdfrwt>
<pdfrwt beam="2">  1       21 0.80579093E-01 0.45536624E+03</pdfrwt>
<totfact> 0.55971017E+04</totfact>
</mgrwt>
</event>
<event>
 7    0  0.4709932E-002  0.4743484E+03  0.7546771E-02  0.1020700E+00
         21   -1    0    0  502  501  0.00000000000E+00  0.00000000000E+00  0.88836577066E+02  0.88836577066E+02  0.00000000000E+00 0. -1.
         21   -1    0    0  501  502 -0.00000000000E+00 -0.00000000000E+00 -0.63320306054E+03  0.63320306054E+03  0.00000000000E+00 0. -1.
      99926    2    1    2    0    0  0.14210854715E-13  0.00000000000E+00 -0.54436648347E+03  0.72203963760E+03  0.47434836349E+03 0.  0.
      99925    2    3    3    0    0 -0.73268330836E+02  0.86431940819E+02 -0.43572723940E+03  0.52131913006E+03  0.26282442715E+03 0.  0.
         25    1    4    4    0    0 -0.69492815787E+02  0.32261969963E+02 -0.26418792310E+03  0.30218016640E+03  0.12509000000E+03 0.  0.
         25    1    3    3    0    0  0.73268330836E+02 -0.86431940819E+02 -0.10863924407E+03  0.20072050755E+03  0.12509000000E+03 0.  0.
         25    1    4    4    0    0 -0.37755150490E+01  0.54169970856E+02 -0.17153931630E+03  0.21913896366E+03  0.12509000000E+03 0.  0.
<mgrwt>
<rscale>  2 0.47434836E+03</rscale>
<asrwt>0</asrwt>
<pdfrwt beam="1">  1       21 0.13064203E-01 0.47434836E+03</pdfrwt>
<pdfrwt beam="2">  1       21 0.93118093E-01 0.47434836E+03</pdfrwt>
<totfact> 0.44545527E+04</totfact>
</mgrwt>
</event>
<event>
 7    0  0.4709932E-002  0.4384487E+03  0.7546771E-02  0.1031224E+00
         21   -1    0    0  502  501  0.00000000000E+00  0.00000000000E+00  0.15957418960E+03  0.15957418960E+03  0.00000000000E+00 0. -1.
         21   -1    0    0  501  502 -0.00000000000E+00 -0.00000000000E+00 -0.30117223389E+03  0.30117223389E+03  0.00000000000E+00 0. -1.
      99926    2    1    2    0    0  0.00000000000E+00  0.00000000000E+00 -0.14159804428E+03  0.46074642349E+03  0.43844869781E+03 0.  0.
      99925    2    3    3    0    0  0.17032299591E+02  0.92915255592E+02 -0.11244095417E+03  0.30130681751E+03  0.26309596377E+03 0.  0.
         25    1    3    3    0    0 -0.17032299591E+02 -0.92915255592E+02 -0.29157090111E+02  0.15943960598E+03  0.12509000000E+03 0.  0.
         25    1    4    4    0    0  0.39940701988E+02  0.54995353195E+02 -0.84961081131E+02  0.16578794273E+03  0.12509000000E+03 0.  0.
         25    1    4    4    0    0 -0.22908402397E+02  0.37919902398E+02 -0.27479873041E+02  0.13551887478E+03  0.12509000000E+03 0.  0.
<mgrwt>
<rscale>  2 0.43844870E+03</rscale>
<asrwt>0</asrwt>
<pdfrwt beam="1">  1       21 0.23466793E-01 0.43844870E+03</pdfrwt>
<pdfrwt beam="2">  1       21 0.44290034E-01 0.43844870E+03</pdfrwt>
<totfact> 0.77863763E+04</totfact>
</mgrwt>
</event>
<event>
 7    0  0.4709932E-002  0.4556155E+03  0.7546771E-02  0.1026061E+00
         21   -1    0    0  502  501  0.00000000000E+00  0.00000000000E+00  0.28483743816E+03  0.28483743816E+03  0.00000000000E+00 0.  1.
         21   -1    0    0  501  502 -0.00000000000E+00 -0.00000000000E+00 -0.18219644498E+03  0.18219644498E+03  0.00000000000E+00 0.  1.
      99926    2    1    2    0    0  0.00000000000E+00 -0.71054273576E-14  0.10264099319E+03  0.46703388314E+03  0.45561548977E+03 0.  0.
      99925    2    3    3    0    0 -0.10142783395E+03 -0.46739316251E+02  0.86647816626E+02  0.29858371549E+03  0.26300612511E+03 0.  0.
         25    1    4    4    0    0 -0.45563670796E+02 -0.43963918081E+02  0.76334873324E+01  0.14040887585E+03  0.12509000000E+03 0.  0.
         25    1    4    4    0    0 -0.55864163156E+02 -0.27753981700E+01  0.79014329294E+02  0.15817483964E+03  0.12509000000E+03 0.  0.
         25    1    3    3    0    0  0.10142783395E+03  0.46739316251E+02  0.15993176559E+02  0.16845016765E+03  0.12509000000E+03 0.  0.
<mgrwt>
<rscale>  2 0.45561549E+03</rscale>
<asrwt>0</asrwt>
<pdfrwt beam="1">  1       21 0.41887859E-01 0.45561549E+03</pdfrwt>
<pdfrwt beam="2">  1       21 0.26793595E-01 0.45561549E+03</pdfrwt>
<totfact> 0.67327998E+04</totfact>
</mgrwt>
</event>
<event>
 7    0  0.4709932E-002  0.4517125E+03  0.7546771E-02  0.1027213E+00
         21   -1    0    0  502  501  0.00000000000E+00  0.00000000000E+00  0.68828658382E+02  0.68828658382E+02  0.00000000000E+00 0.  1.
         21   -1    0    0  501  502 -0.00000000000E+00 -0.00000000000E+00 -0.74113076217E+03  0.74113076217E+03  0.00000000000E+00 0.  1.
      99926    2    1    2    0    0  0.00000000000E+00  0.00000000000E+00 -0.67230210379E+03  0.80995942055E+03  0.45171245741E+03 0.  0.
      99925    2    3    3    0    0  0.47209395604E+02  0.91849033228E+02 -0.35643165329E+03  0.45487264026E+03  0.26306011377E+03 0.  0.
         25    1    4    4    0    0  0.44598106157E+02  0.41076371842E+02 -0.12507714699E+03  0.18699748714E+03  0.12509000000E+03 0.  0.
         25    1    3    3    0    0 -0.47209395604E+02 -0.91849033228E+02 -0.31587045049E+03  0.35508678028E+03  0.12509000000E+03 0.  0.
         25    1    4    4    0    0  0.26112894465E+01  0.50772661386E+02 -0.23135450630E+03  0.26787515313E+03  0.12509000000E+03 0.  0.
<mgrwt>
<rscale>  2 0.45171246E+03</rscale>
<asrwt>0</asrwt>
<pdfrwt beam="1">  1       21 0.10121862E-01 0.45171246E+03</pdfrwt>
<pdfrwt beam="2">  1       21 0.10898982E+00 0.45171246E+03</pdfrwt>
<totfact> 0.48526693E+04</totfact>
</mgrwt>
</event>
<event>
 7    0  0.4709932E-002  0.4592596E+03  0.7546771E-02  0.1024996E+00
         21   -1    0    0  502  501  0.00000000000E+00  0.00000000000E+00  0.74546932440E+02  0.74546932440E+02  0.00000000000E+00 0. -1.
         21   -1    0    0  501  502 -0.00000000000E+00 -0.00000000000E+00 -0.70733767484E+03  0.70733767484E+03  0.00000000000E+00 0. -1.
      99926    2    1    2    0    0  0.00000000000E+00  0.00000000000E+00 -0.63279074240E+03  0.78188460728E+03  0.45925963837E+03 0.  0.
      99925    2    3    3    0    0 -0.59233724979E+02  0.40441224132E+02 -0.55431618034E+03  0.61772038531E+03  0.26299794649E+03 0.  0.
         25    1    3    3    0    0  0.59233724979E+02 -0.40441224132E+02 -0.78474562059E+02  0.16416422197E+03  0.12509000000E+03 0.  0.
         25    1    4    4    0    0 -0.10932311710E+02  0.54812930658E+02 -0.25669118867E+03  0.29096708963E+03  0.12509000000E+03 0.  0.
         25    1    4    4    0    0 -0.48301413269E+02 -0.14371706526E+02 -0.29762499167E+03  0.32675329568E+03  0.12509000000E+03 0.  0.
<mgrwt>
<rscale>  2 0.45925964E+03</rscale>
<asrwt>0</asrwt>
<pdfrwt beam="1">  1       21 0.10962784E-01 0.45925964E+03</pdfrwt>
<pdfrwt beam="2">  1       21 0.10402025E+00 0.45925964E+03</pdfrwt>
<totfact> 0.47060303E+04</totfact>
</mgrwt>
</event>
<event>
 7    0  0.4709932E-002  0.4629388E+03  0.7546771E-02  0.1023932E+00
         21   -1    0    0  502  501  0.00000000000E+00  0.00000000000E+00  0.58776712430E+03  0.58776712430E+03  0.00000000000E+00 0.  1.
         21   -1    0    0  501  502 -0.00000000000E+00 -0.00000000000E+00 -0.91155272597E+02  0.91155272597E+02  0.00000000000E+00 0.  1.
      99926    2    1    2    0    0  0.14210854715E-13  0.00000000000E+00  0.49661185170E+03  0.67892239689E+03  0.46293875378E+03 0.  0.
      99925    2    3    3    0    0  0.89353620926E+02  0.64889733369E+02  0.23899308415E+03  0.37198643522E+03  0.26279548446E+03 0.  0.
         25    1    4    4    0    0  0.15249782524E+02  0.38409033468E+02  0.76497061948E+02  0.15233882731E+03  0.12509000000E+03 0.  0.
         25    1    3    3    0    0 -0.89353620926E+02 -0.64889733369E+02  0.25761876755E+03  0.30693596167E+03  0.12509000000E+03 0.  0.
         25    1    4    4    0    0  0.74103838402E+02  0.26480699901E+02  0.16249602220E+03  0.21964760792E+03  0.12509000000E+03 0.  0.
<mgrwt>
<rscale>  2 0.46293875E+03</rscale>
<asrwt>0</asrwt>
<pdfrwt beam="1">  1       21 0.86436340E-01 0.46293875E+03</pdfrwt>
<pdfrwt beam="2">  1       21 0.13405187E-01 0.46293875E+03</pdfrwt>
<totfact> 0.50808643E+04</totfact>
</mgrwt>
</event>
<event>
 7    0  0.4709932E-002  0.4560991E+03  0.7546771E-02  0.1025919E+00
         21   -1    0    0  502  501  0.00000000000E+00  0.00000000000E+00  0.13332293778E+04  0.13332293778E+04  0.00000000000E+00 0.  1.
         21   -1    0    0  501  502 -0.00000000000E+00 -0.00000000000E+00 -0.39007988381E+02  0.39007988381E+02  0.00000000000E+00 0.  1.
      99926    2    1    2    0    0  0.00000000000E+00 -0.35527136788E-14  0.12942213894E+04  0.13722373662E+04  0.45609909484E+03 0.  0.
      99925    2    3    3    0    0  0.27604595065E+02 -0.26186758145E+02  0.11374031261E+04  0.11680628434E+04  0.26312957781E+03 0.  0.
         25    1    4    4    0    0  0.16715503539E+02 -0.50443259361E+02  0.51299182311E+03  0.53069016304E+03  0.12509000000E+03 0.  0.
         25    1    3    3    0    0 -0.27604595065E+02  0.26186758145E+02  0.15681826329E+03  0.20417452283E+03  0.12509000000E+03 0.  0.
         25    1    4    4    0    0  0.10889091527E+02  0.24256501216E+02  0.62441130302E+03  0.63737268031E+03  0.12509000000E+03 0.  0.
<mgrwt>
<rscale>  2 0.45609909E+03</rscale>
<asrwt>0</asrwt>
<pdfrwt beam="1">  1       21 0.19606311E+00 0.45609909E+03</pdfrwt>
<pdfrwt beam="2">  1       21 0.57364698E-02 0.45609909E+03</pdfrwt>
<totfact> 0.26851217E+04</totfact>
</mgrwt>
</event>
<event>
 7    0  0.4709932E-002  0.4375510E+03  0.7546771E-02  0.1031501E+00
         21   -1    0    0  502  501  0.00000000000E+00  0.00000000000E+00  0.19696637762E+03  0.19696637762E+03  0.00000000000E+00 0. -1.
         21   -1    0    0  501  502 -0.00000000000E+00 -0.00000000000E+00 -0.24299943268E+03  0.24299943268E+03  0.00000000000E+00 0. -1.
      99926    2    1    2    0    0  0.00000000000E+00  0.35527136788E-14 -0.46033055065E+02  0.43996581030E+03  0.43755099368E+03 0.  0.
      99925    2    3    3    0    0  0.74069641968E+02 -0.89383969609E+01 -0.90034842099E+02  0.28781498985E+03  0.26299237401E+03 0.  0.
         25    1    3    3    0    0 -0.74069641968E+02  0.89383969609E+01  0.44001787033E+02  0.15215082045E+03  0.12509000000E+03 0.  0.
         25    1    4    4    0    0  0.26701895249E+02 -0.41108424729E+02 -0.59271047892E+02  0.14684501698E+03  0.12509000000E+03 0.  0.
         25    1    4    4    0    0  0.47367746719E+02  0.32170027768E+02 -0.30763794207E+02  0.14096997287E+03  0.12509000000E+03 0.  0.
<mgrwt>
<rscale>  2 0.43755099E+03</rscale>
<asrwt>0</asrwt>
<pdfrwt beam="1">  1       21 0.28965644E-01 0.43755099E+03</pdfrwt>
<pdfrwt beam="2">  1       21 0.35735211E-01 0.43755099E+03</pdfrwt>
<totfact> 0.80267420E+04</totfact>
</mgrwt>
</event>
<event>
 7    0  0.4709932E-002  0.4589837E+03  0.7546771E-02  0.1025076E+00
         21   -1    0    0  502  501  0.00000000000E+00  0.00000000000E+00  0.29657935839E+03  0.29657935839E+03  0.00000000000E+00 0. -1.
         21   -1    0    0  501  502 -0.00000000000E+00 -0.00000000000E+00 -0.17757978886E+03  0.17757978886E+03  0.00000000000E+00 0. -1.
      99926    2    1    2    0    0  0.00000000000E+00  0.14210854715E-13  0.11899956953E+03  0.47415914725E+03  0.45898365916E+03 0.  0.
      99925    2    3    3    0    0 -0.39021869929E+02 -0.10781203275E+03  0.53089793866E+02  0.29212138368E+03  0.26338229981E+03 0.  0.
         25    1    4    4    0    0 -0.59306652051E+02 -0.65108444612E+02  0.19327208766E+02  0.15419934382E+03  0.12509000000E+03 0.  0.
         25    1    3    3    0    0  0.39021869929E+02  0.10781203275E+03  0.65909775664E+02  0.18203776357E+03  0.12509000000E+03 0.  0.
         25    1    4    4    0    0  0.20284782121E+02 -0.42703588138E+02  0.33762585100E+02  0.13792203986E+03  0.12509000000E+03 0.  0.
<mgrwt>
<rscale>  2 0.45898366E+03</rscale>
<asrwt>0</asrwt>
<pdfrwt beam="1">  1       21 0.43614612E-01 0.45898366E+03</pdfrwt>
<pdfrwt beam="2">  1       21 0.26114675E-01 0.45898366E+03</pdfrwt>
<totfact> 0.65047433E+04</totfact>
</mgrwt>
</event>
<event>
 7    0  0.4709932E-002  0.4697171E+03  0.7546771E-02  0.1022000E+00
         21   -1    0    0  502  501  0.00000000000E+00  0.00000000000E+00  0.56103845649E+03  0.56103845649E+03  0.00000000000E+00 0. -1.
         21   -1    0    0  501  502 -0.00000000000E+00 -0.00000000000E+00 -0.98315089011E+02  0.98315089011E+02  0.00000000000E+00 0. -1.
      99926    2    1    2    0    0  0.00000000000E+00 -0.14210854715E-13  0.46272336748E+03  0.65935354550E+03  0.46971713100E+03 0.  0.
      99925    2    3    3    0    0  0.22386649803E+02 -0.11198474615E+03  0.21096682150E+03  0.35592214963E+03  0.26292932770E+03 0.  0.
         25    1    4    4    0    0  0.20915414154E+01 -0.79450278476E+02  0.71018163567E+02  0.16434052742E+03  0.12509000000E+03 0.  0.
         25    1    4    4    0    0  0.20295108388E+02 -0.32534467672E+02  0.13994865793E+03  0.19158162221E+03  0.12509000000E+03 0.  0.
         25    1    3    3    0    0 -0.22386649803E+02  0.11198474615E+03  0.25175654598E+03  0.30343139587E+03  0.12509000000E+03 0.  0.
<mgrwt>
<rscale>  2 0.46971713E+03</rscale>
<asrwt>0</asrwt>
<pdfrwt beam="1">  1       21 0.82505654E-01 0.46971713E+03</pdfrwt>
<pdfrwt beam="2">  1       21 0.14458102E-01 0.46971713E+03</pdfrwt>
<totfact> 0.49200862E+04</totfact>
</mgrwt>
</event>
<event>
 7    0  0.4709932E-002  0.4523040E+03  0.7546771E-02  0.1027037E+00
         21   -1    0    0  502  501  0.00000000000E+00  0.00000000000E+00  0.16782702516E+03  0.16782702516E+03  0.00000000000E+00 0.  1.
         21   -1    0    0  501  502 -0.00000000000E+00 -0.00000000000E+00 -0.30474671416E+03  0.30474671416E+03  0.00000000000E+00 0.  1.
      99926    2    1    2    0    0  0.71054273576E-14  0.00000000000E+00 -0.13691968901E+03  0.47257373932E+03  0.45230403254E+03 0.  0.
      99925    2    3    3    0    0 -0.60508561958E+02 -0.32245850397E+02 -0.17685543462E+03  0.32444051274E+03  0.26321611010E+03 0.  0.
         25    1    3    3    0    0  0.60508561958E+02  0.32245850397E+02  0.39935745612E+02  0.14813322658E+03  0.12509000000E+03 0.  0.
         25    1    4    4    0    0 -0.42762567326E+02  0.21436991320E+02 -0.74902460499E+02  0.15344728232E+03  0.12509000000E+03 0.  0.
         25    1    4    4    0    0 -0.17745994633E+02 -0.53682841716E+02 -0.10195297412E+03  0.17099323043E+03  0.12509000000E+03 0.  0.
<mgrwt>
<rscale>  2 0.45230403E+03</rscale>
<asrwt>0</asrwt>
<pdfrwt beam="1">  1       21 0.24680445E-01 0.45230403E+03</pdfrwt>
<pdfrwt beam="2">  1       21 0.44815693E-01 0.45230403E+03</pdfrwt>
<totfact> 0.68702889E+04</totfact>
</mgrwt>
</event>
<event>
 7    0  0.4709932E-002  0.4482278E+03  0.7546771E-02  0.1028252E+00
         21   -1    0    0  502  501  0.00000000000E+00  0.00000000000E+00  0.14532288570E+03  0.14532288570E+03  0.00000000000E+00 0. -1.
         21   -1    0    0  501  502 -0.00000000000E+00 -0.00000000000E+00 -0.34562374220E+03  0.34562374220E+03  0.00000000000E+00 0. -1.
      99926    2    1    2    0    0  0.35527136788E-14 -0.14210854715E-13 -0.20030085650E+03  0.49094662790E+03  0.44822779737E+03 0.  0.
      99925    2    3    3    0    0 -0.28390621240E+02 -0.98988842729E+02 -0.96274854865E+02  0.29840121644E+03  0.26300117858E+03 0.  0.
         25    1    4    4    0    0 -0.45312595590E+02 -0.26792793856E+02 -0.32138687235E+02  0.13946859302E+03  0.12509000000E+03 0.  0.
         25    1    4    4    0    0  0.16921974349E+02 -0.72196048874E+02 -0.64136167629E+02  0.15893262342E+03  0.12509000000E+03 0.  0.
         25    1    3    3    0    0  0.28390621240E+02  0.98988842729E+02 -0.10402600164E+03  0.19254541147E+03  0.12509000000E+03 0.  0.
<mgrwt>
<rscale>  2 0.44822780E+03</rscale>
<asrwt>0</asrwt>
<pdfrwt beam="1">  1       21 0.21371012E-01 0.44822780E+03</pdfrwt>
<pdfrwt beam="2">  1       21 0.50827021E-01 0.44822780E+03</pdfrwt>
<totfact> 0.69577500E+04</totfact>
</mgrwt>
</event>
<event>
 7    0  0.4709932E-002  0.4470774E+03  0.7546771E-02  0.1028597E+00
         21   -1    0    0  502  501  0.00000000000E+00  0.00000000000E+00  0.16261589489E+03  0.16261589489E+03  0.00000000000E+00 0. -1.
         21   -1    0    0  501  502 -0.00000000000E+00 -0.00000000000E+00 -0.30728579247E+03  0.30728579247E+03  0.00000000000E+00 0. -1.
      99926    2    1    2    0    0  0.00000000000E+00  0.00000000000E+00 -0.14466989758E+03  0.46990168736E+03  0.44707741670E+03 0.  0.
      99925    2    3    3    0    0  0.60408736061E+02 -0.84657712869E+02 -0.11333787257E+03  0.30423531289E+03  0.26248334901E+03 0.  0.
         25    1    4    4    0    0  0.29170654726E+02 -0.72528430780E+02 -0.89564286905E+02  0.17257047823E+03  0.12509000000E+03 0.  0.
         25    1    3    3    0    0 -0.60408736061E+02  0.84657712869E+02 -0.31332025011E+02  0.16566637448E+03  0.12509000000E+03 0.  0.
         25    1    4    4    0    0  0.31238081335E+02 -0.12129282089E+02 -0.23773585663E+02  0.13166483466E+03  0.12509000000E+03 0.  0.
<mgrwt>
<rscale>  2 0.44707742E+03</rscale>
<asrwt>0</asrwt>
<pdfrwt beam="1">  1       21 0.23914103E-01 0.44707742E+03</pdfrwt>
<pdfrwt beam="2">  1       21 0.45189086E-01 0.44707742E+03</pdfrwt>
<totfact> 0.71855298E+04</totfact>
</mgrwt>
</event>
<event>
 7    0  0.4709932E-002  0.4431245E+03  0.7546771E-02  0.1029792E+00
         21   -1    0    0  502  501  0.00000000000E+00  0.00000000000E+00  0.10745616692E+04  0.10745616692E+04  0.00000000000E+00 0. -1.
         21   -1    0    0  501  502 -0.00000000000E+00 -0.00000000000E+00 -0.45683578739E+02  0.45683578739E+02  0.00000000000E+00 0. -1.
      99926    2    1    2    0    0  0.00000000000E+00 -0.26645352591E-14  0.10288780904E+04  0.11202452479E+04  0.44312446388E+03 0.  0.
      99925    2    3    3    0    0  0.89936746128E+02 -0.49721306080E+01  0.53547063689E+03  0.60331994992E+03  0.26296923512E+03 0.  0.
         25    1    4    4    0    0  0.54963117948E+02 -0.31628671509E+02  0.21731421626E+03  0.25863931233E+03  0.12509000000E+03 0.  0.
         25    1    3    3    0    0 -0.89936746128E+02  0.49721306080E+01  0.49340745353E+03  0.51692529797E+03  0.12509000000E+03 0.  0.
         25    1    4    4    0    0  0.34973628181E+02  0.26656540901E+02  0.31815642063E+03  0.34468063759E+03  0.12509000000E+03 0.  0.
<mgrwt>
<rscale>  2 0.44312446E+03</rscale>
<asrwt>0</asrwt>
<pdfrwt beam="1">  1       21 0.15802376E+00 0.44312446E+03</pdfrwt>
<pdfrwt beam="2">  1       21 0.67181740E-02 0.44312446E+03</pdfrwt>
<totfact> 0.38208236E+04</totfact>
</mgrwt>
</event>
<event>
 7    0  0.4709932E-002  0.4585270E+03  0.7546771E-02  0.1025209E+00
         21   -1    0    0  502  501  0.00000000000E+00  0.00000000000E+00  0.40690768202E+02  0.40690768202E+02  0.00000000000E+00 0. -1.
         21   -1    0    0  501  502 -0.00000000000E+00 -0.00000000000E+00 -0.12917367661E+04  0.12917367661E+04  0.00000000000E+00 0. -1.
      99926    2    1    2    0    0  0.00000000000E+00  0.00000000000E+00 -0.12510459979E+04  0.13324275343E+04  0.45852703881E+03 0.  0.
      99925    2    3    3    0    0  0.22058966725E+02  0.38877083726E+02 -0.47253122342E+03  0.54266124746E+03  0.26305407569E+03 0.  0.
         25    1    4    4    0    0  0.22338898431E+02  0.43883276130E+02 -0.30680257366E+03  0.33496282721E+03  0.12509000000E+03 0.  0.
         25    1    3    3    0    0 -0.22058966725E+02 -0.38877083726E+02 -0.77851477450E+03  0.78976628687E+03  0.12509000000E+03 0.  0.
         25    1    4    4    0    0 -0.27993170686E+00 -0.50061924035E+01 -0.16572864976E+03  0.20769842025E+03  0.12509000000E+03 0.  0.
<mgrwt>
<rscale>  2 0.45852704E+03</rscale>
<asrwt>0</asrwt>
<pdfrwt beam="1">  1       21 0.59839362E-02 0.45852704E+03</pdfrwt>
<pdfrwt beam="2">  1       21 0.18996130E+00 0.45852704E+03</pdfrwt>
<totfact> 0.27427412E+04</totfact>
</mgrwt>
</event>
<event>
 7    0  0.4709932E-002  0.4478877E+03  0.7546771E-02  0.1028354E+00
         21   -1    0    0  502  501  0.00000000000E+00  0.00000000000E+00  0.29979576259E+03  0.29979576259E+03  0.00000000000E+00 0. -1.
         21   -1    0    0  501  502 -0.00000000000E+00 -0.00000000000E+00 -0.16728334174E+03  0.16728334174E+03  0.00000000000E+00 0. -1.
      99926    2    1    2    0    0 -0.88817841970E-15  0.14210854715E-13  0.13251242086E+03  0.46707910433E+03  0.44788765112E+03 0.  0.
      99925    2    3    3    0    0  0.45354717584E+01 -0.10306697793E+03  0.11118464214E+03  0.30353781081E+03  0.26292547518E+03 0.  0.
         25    1    4    4    0    0 -0.26324517557E+02 -0.77314667147E+02  0.42716291546E+02  0.15537930250E+03  0.12509000000E+03 0.  0.
         25    1    4    4    0    0  0.30859989316E+02 -0.25752310781E+02  0.68468350598E+02  0.14815850831E+03  0.12509000000E+03 0.  0.
         25    1    3    3    0    0 -0.45354717584E+01  0.10306697793E+03  0.21327778711E+02  0.16354129353E+03  0.12509000000E+03 0.  0.
<mgrwt>
<rscale>  2 0.44788765E+03</rscale>
<asrwt>0</asrwt>
<pdfrwt beam="1">  1       21 0.44087612E-01 0.44788765E+03</pdfrwt>
<pdfrwt beam="2">  1       21 0.24600491E-01 0.44788765E+03</pdfrwt>
<totfact> 0.71609900E+04</totfact>
</mgrwt>
</event>
<event>
 7    0  0.4709932E-002  0.4543263E+03  0.7546771E-02  0.1026440E+00
         21   -1    0    0  502  501  0.00000000000E+00  0.00000000000E+00  0.70152356571E+03  0.70152356571E+03  0.00000000000E+00 0.  1.
         21   -1    0    0  501  502 -0.00000000000E+00 -0.00000000000E+00 -0.73558607355E+02  0.73558607355E+02  0.00000000000E+00 0.  1.
      99926    2    1    2    0    0 -0.17763568394E-14  0.00000000000E+00  0.62796495836E+03  0.77508217307E+03  0.45432629913E+03 0.  0.
      99925    2    3    3    0    0 -0.14033614643E+02 -0.97634912832E+02  0.30262331189E+03  0.41283334482E+03  0.26290869736E+03 0.  0.
         25    1    3    3    0    0  0.14033614643E+02  0.97634912832E+02  0.32534164647E+03  0.36224882825E+03  0.12509000000E+03 0.  0.
         25    1    4    4    0    0  0.38048218341E+01 -0.83075955246E+02  0.13164975533E+03  0.19973797132E+03  0.12509000000E+03 0.  0.
         25    1    4    4    0    0 -0.17838436478E+02 -0.14558957587E+02  0.17097355656E+03  0.21309537349E+03  0.12509000000E+03 0.  0.
<mgrwt>
<rscale>  2 0.45432630E+03</rscale>
<asrwt>0</asrwt>
<pdfrwt beam="1">  1       21 0.10316523E+00 0.45432630E+03</pdfrwt>
<pdfrwt beam="2">  1       21 0.10817443E-01 0.45432630E+03</pdfrwt>
<totfact> 0.49253641E+04</totfact>
</mgrwt>
</event>
<event>
 7    0  0.4709932E-002  0.4453791E+03  0.7546771E-02  0.1029109E+00
         21   -1    0    0  502  501  0.00000000000E+00  0.00000000000E+00  0.20999885671E+02  0.20999885671E+02  0.00000000000E+00 0.  1.
         21   -1    0    0  501  502 -0.00000000000E+00 -0.00000000000E+00 -0.23614711785E+04  0.23614711785E+04  0.00000000000E+00 0.  1.
      99926    2    1    2    0    0  0.14210854715E-13  0.35527136788E-14 -0.23404712928E+04  0.23824710642E+04  0.44537905099E+03 0.  0.
      99925    2    3    3    0    0 -0.96819367062E+02 -0.19786077307E+02 -0.16576104310E+04  0.16812493136E+04  0.26298561744E+03 0.  0.
         25    1    4    4    0    0 -0.76201112348E+02 -0.39776288343E+02 -0.83385057728E+03  0.84755121141E+03  0.12509000000E+03 0.  0.
         25    1    3    3    0    0  0.96819367062E+02  0.19786077307E+02 -0.68286086185E+03  0.70122175055E+03  0.12509000000E+03 0.  0.
         25    1    4    4    0    0 -0.20618254714E+02  0.19990211037E+02 -0.82375985370E+03  0.83369810221E+03  0.12509000000E+03 0.  0.
<mgrwt>
<rscale>  2 0.44537905E+03</rscale>
<asrwt>0</asrwt>
<pdfrwt beam="1">  1       21 0.30882189E-02 0.44537905E+03</pdfrwt>
<pdfrwt beam="2">  1       21 0.34727513E+00 0.44537905E+03</pdfrwt>
<totfact> 0.90696426E+03</totfact>
</mgrwt>
</event>
<event>
 7    0  0.4709932E-002  0.4572201E+03  0.7546771E-02  0.1025591E+00
         21   -1    0    0  502  501  0.00000000000E+00  0.00000000000E+00  0.77866758300E+03  0.77866758300E+03  0.00000000000E+00 0. -1.
         21   -1    0    0  501  502 -0.00000000000E+00 -0.00000000000E+00 -0.67117922520E+02  0.67117922520E+02  0.00000000000E+00 0. -1.
      99926    2    1    2    0    0 -0.14210854715E-13  0.00000000000E+00  0.71154966048E+03  0.84578550552E+03  0.45722008051E+03 0.  0.
      99925    2    3    3    0    0 -0.81802139042E+02  0.57857065919E+02  0.34077593354E+03  0.44185519628E+03  0.26280933693E+03 0.  0.
         25    1    3    3    0    0  0.81802139042E+02 -0.57857065919E+02  0.37077372694E+03  0.40393030923E+03  0.12509000000E+03 0.  0.
         25    1    4    4    0    0 -0.64631230558E+02  0.23417525933E+02  0.12624225645E+03  0.19055233375E+03  0.12509000000E+03 0.  0.
         25    1    4    4    0    0 -0.17170908485E+02  0.34439539986E+02  0.21453367709E+03  0.25130286253E+03  0.12509000000E+03 0.  0.
<mgrwt>
<rscale>  2 0.45722008E+03</rscale>
<asrwt>0</asrwt>
<pdfrwt beam="1">  1       21 0.11450993E+00 0.45722008E+03</pdfrwt>
<pdfrwt beam="2">  1       21 0.98702832E-02 0.45722008E+03</pdfrwt>
<totfact> 0.44842389E+04</totfact>
</mgrwt>
</event>
<event>
 7    0  0.4709932E-002  0.4611230E+03  0.7546771E-02  0.1024456E+00
         21   -1    0    0  502  501  0.00000000000E+00  0.00000000000E+00  0.31143510280E+03  0.31143510280E+03  0.00000000000E+00 0.  1.
         21   -1    0    0  501  502 -0.00000000000E+00 -0.00000000000E+00 -0.17068916134E+03  0.17068916134E+03  0.00000000000E+00 0.  1.
      99926    2    1    2    0    0  0.00000000000E+00  0.35527136788E-14  0.14074594146E+03  0.48212426414E+03  0.46112296195E+03 0.  0.
      99925    2    3    3    0    0  0.97207985782E+02  0.21352525203E+02  0.20257948009E+02  0.28194887230E+03  0.26301988385E+03 0.  0.
         25    1    4    4    0    0  0.82676728411E+02 -0.84046508270E+01  0.26045383767E+02  0.15242030604E+03  0.12509000000E+03 0.  0.
         25    1    4    4    0    0  0.14531257370E+02  0.29757176030E+02 -0.57874357583E+01  0.12952856627E+03  0.12509000000E+03 0.  0.
         25    1    3    3    0    0 -0.97207985782E+02 -0.21352525203E+02  0.12048799345E+03  0.20017539184E+03  0.12509000000E+03 0.  0.
<mgrwt>
<rscale>  2 0.46112296E+03</rscale>
<asrwt>0</asrwt>
<pdfrwt beam="1">  1       21 0.45799280E-01 0.46112296E+03</pdfrwt>
<pdfrwt beam="2">  1       21 0.25101347E-01 0.46112296E+03</pdfrwt>
<totfact> 0.63407805E+04</totfact>
</mgrwt>
</event>
<event>
 7    0  0.4709932E-002  0.4499519E+03  0.7546771E-02  0.1027736E+00
         21   -1    0    0  502  501  0.00000000000E+00  0.00000000000E+00  0.58330273131E+03  0.58330273131E+03  0.00000000000E+00 0.  1.
         21   -1    0    0  501  502 -0.00000000000E+00 -0.00000000000E+00 -0.86771710829E+02  0.86771710829E+02  0.00000000000E+00 0.  1.
      99926    2    1    2    0    0  0.00000000000E+00  0.00000000000E+00  0.49653102048E+03  0.67007444214E+03  0.44995189044E+03 0.  0.
      99925    2    3    3    0    0 -0.85628100123E+02 -0.36896925546E+02  0.23146639759E+03  0.36250279674E+03  0.26294111467E+03 0.  0.
         25    1    4    4    0    0 -0.12831074468E+02 -0.15590045252E+02  0.70538772120E+02  0.14502038634E+03  0.12509000000E+03 0.  0.
         25    1    4    4    0    0 -0.72797025655E+02 -0.21306880294E+02  0.16092762547E+03  0.21748241040E+03  0.12509000000E+03 0.  0.
         25    1    3    3    0    0  0.85628100123E+02  0.36896925546E+02  0.26506462289E+03  0.30757164540E+03  0.12509000000E+03 0.  0.
<mgrwt>
<rscale>  2 0.44995189E+03</rscale>
<asrwt>0</asrwt>
<pdfrwt beam="1">  1       21 0.85779812E-01 0.44995189E+03</pdfrwt>
<pdfrwt beam="2">  1       21 0.12760546E-01 0.44995189E+03</pdfrwt>
<totfact> 0.56783343E+04</totfact>
</mgrwt>
</event>
<event>
 7    0  0.4709932E-002  0.4016523E+03  0.7546771E-02  0.1043209E+00
         21   -1    0    0  502  501  0.00000000000E+00  0.00000000000E+00  0.14646007553E+04  0.14646007553E+04  0.00000000000E+00 0. -1.
         21   -1    0    0  501  502 -0.00000000000E+00 -0.00000000000E+00 -0.27537288640E+02  0.27537288640E+02  0.00000000000E+00 0. -1.
      99926    2    1    2    0    0  0.00000000000E+00  0.71054273576E-14  0.14370634667E+04  0.14921380440E+04  0.40165225627E+03 0.  0.
      99925    2    3    3    0    0 -0.12024625351E+02 -0.38909970948E+02  0.10555810068E+04  0.10886099127E+04  0.26298612620E+03 0.  0.
         25    1    3    3    0    0  0.12024625351E+02  0.38909970948E+02  0.38148245989E+03  0.40352813131E+03  0.12509000000E+03 0.  0.
         25    1    4    4    0    0 -0.18642623232E+02 -0.57747423116E+02  0.52188507700E+03  0.54008689483E+03  0.12509000000E+03 0.  0.
         25    1    4    4    0    0  0.66179978806E+01  0.18837452168E+02  0.53369592982E+03  0.54852301785E+03  0.12509000000E+03 0.  0.
<mgrwt>
<rscale>  2 0.40165226E+03</rscale>
<asrwt>0</asrwt>
<pdfrwt beam="1">  1       21 0.21538241E+00 0.40165226E+03</pdfrwt>
<pdfrwt beam="2">  1       21 0.40496022E-02 0.40165226E+03</pdfrwt>
<totfact> 0.37145401E+04</totfact>
</mgrwt>
</event>
<event>
 7    0  0.4709932E-002  0.4617168E+03  0.7546771E-02  0.1024284E+00
         21   -1    0    0  502  501  0.00000000000E+00  0.00000000000E+00  0.22642524977E+03  0.22642524977E+03  0.00000000000E+00 0.  1.
         21   -1    0    0  501  502 -0.00000000000E+00 -0.00000000000E+00 -0.23537836120E+03  0.23537836120E+03  0.00000000000E+00 0.  1.
      99926    2    1    2    0    0  0.00000000000E+00  0.00000000000E+00 -0.89531114278E+01  0.46180361096E+03  0.46171681461E+03 0.  0.
      99925    2    3    3    0    0  0.81104556689E+02  0.44107974159E+02  0.70127124711E+02  0.28737696636E+03  0.26295293243E+03 0.  0.
         25    1    3    3    0    0 -0.81104556689E+02 -0.44107974159E+02 -0.79080236139E+02  0.17442664460E+03  0.12509000000E+03 0.  0.
         25    1    4    4    0    0  0.53754928525E+02 -0.90980395419E+01  0.57731407636E+02  0.14816474004E+03  0.12509000000E+03 0.  0.
         25    1    4    4    0    0  0.27349628165E+02  0.53206013701E+02  0.12395717075E+02  0.13921222632E+03  0.12509000000E+03 0.  0.
<mgrwt>
<rscale>  2 0.46171681E+03</rscale>
<asrwt>0</asrwt>
<pdfrwt beam="1">  1       21 0.33297831E-01 0.46171681E+03</pdfrwt>
<pdfrwt beam="2">  1       21 0.34614465E-01 0.46171681E+03</pdfrwt>
<totfact> 0.64522309E+04</totfact>
</mgrwt>
</event>
<event>
 7    0  0.4709932E-002  0.4536132E+03  0.7546771E-02  0.1026650E+00
         21   -1    0    0  502  501  0.00000000000E+00  0.00000000000E+00  0.82492975292E+02  0.82492975292E+02  0.00000000000E+00 0.  1.
         21   -1    0    0  501  502 -0.00000000000E+00 -0.00000000000E+00 -0.62358333839E+03  0.62358333839E+03  0.00000000000E+00 0.  1.
      99926    2    1    2    0    0  0.00000000000E+00  0.14210854715E-13 -0.54109036310E+03  0.70607631368E+03  0.45361324904E+03 0.  0.
      99925    2    3    3    0    0 -0.50235365023E+02  0.94648582548E+02 -0.29088027786E+03  0.40651907218E+03  0.26299139515E+03 0.  0.
         25    1    4    4    0    0 -0.51489261797E+02  0.81562794408E+02 -0.15352030182E+03  0.22027170649E+03  0.12509000000E+03 0.  0.
         25    1    4    4    0    0  0.12538967743E+01  0.13085788141E+02 -0.13735997604E+03  0.18624736569E+03  0.12509000000E+03 0.  0.
         25    1    3    3    0    0  0.50235365023E+02 -0.94648582548E+02 -0.25021008524E+03  0.29955724150E+03  0.12509000000E+03 0.  0.
<mgrwt>
<rscale>  2 0.45361325E+03</rscale>
<asrwt>0</asrwt>
<pdfrwt beam="1">  1       21 0.12131320E-01 0.45361325E+03</pdfrwt>
<pdfrwt beam="2">  1       21 0.91703432E-01 0.45361325E+03</pdfrwt>
<totfact> 0.53151896E+04</totfact>
</mgrwt>
</event>
<event>
 7    0  0.4709932E-002  0.4573412E+03  0.7546771E-02  0.1025555E+00
         21   -1    0    0  502  501  0.00000000000E+00  0.00000000000E+00  0.46480227872E+03  0.46480227872E+03  0.00000000000E+00 0.  1.
         21   -1    0    0  501  502 -0.00000000000E+00 -0.00000000000E+00 -0.11249997078E+03  0.11249997078E+03  0.00000000000E+00 0.  1.
      99926    2    1    2    0    0 -0.13322676296E-14  0.00000000000E+00  0.35230230794E+03  0.57730224950E+03  0.45734119768E+03 0.  0.
      99925    2    3    3    0    0 -0.90978009478E+00 -0.93568608753E+02  0.30665085459E+03  0.41455251667E+03  0.26279864955E+03 0.  0.
         25    1    4    4    0    0  0.30121844213E+02 -0.24030808567E+02  0.16713676452E+03  0.21228992301E+03  0.12509000000E+03 0.  0.
         25    1    4    4    0    0 -0.31031624308E+02 -0.69537800185E+02  0.13951409007E+03  0.20226259365E+03  0.12509000000E+03 0.  0.
         25    1    3    3    0    0  0.90978009478E+00  0.93568608753E+02  0.45651453342E+02  0.16274973283E+03  0.12509000000E+03 0.  0.
<mgrwt>
<rscale>  2 0.45734120E+03</rscale>
<asrwt>0</asrwt>
<pdfrwt beam="1">  1       21 0.68353276E-01 0.45734120E+03</pdfrwt>
<pdfrwt beam="2">  1       21 0.16544114E-01 0.45734120E+03</pdfrwt>
<totfact> 0.58997909E+04</totfact>
</mgrwt>
</event>
<event>
 7    0  0.4709932E-002  0.4623578E+03  0.7546771E-02  0.1024100E+00
         21   -1    0    0  502  501  0.00000000000E+00  0.00000000000E+00  0.60293566619E+03  0.60293566619E+03  0.00000000000E+00 0. -1.
         21   -1    0    0  501  502 -0.00000000000E+00 -0.00000000000E+00 -0.88639097056E+02  0.88639097056E+02  0.00000000000E+00 0. -1.
      99926    2    1    2    0    0  0.00000000000E+00 -0.17763568394E-14  0.51429656914E+03  0.69157476325E+03  0.46235775341E+03 0.  0.
      99925    2    3    3    0    0  0.83349236429E+02 -0.15747966406E+02  0.44831628063E+03  0.52666266475E+03  0.26304178623E+03 0.  0.
         25    1    4    4    0    0  0.59012572689E+02  0.24206742006E+02  0.26439695851E+03  0.29936885252E+03  0.12509000000E+03 0.  0.
         25    1    3    3    0    0 -0.83349236429E+02  0.15747966406E+02  0.65980288503E+02  0.16491209850E+03  0.12509000000E+03 0.  0.
         25    1    4    4    0    0  0.24336663740E+02 -0.39954708412E+02  0.18391932212E+03  0.22729381223E+03  0.12509000000E+03 0.  0.
<mgrwt>
<rscale>  2 0.46235775E+03</rscale>
<asrwt>0</asrwt>
<pdfrwt beam="1">  1       21 0.88667008E-01 0.46235775E+03</pdfrwt>
<pdfrwt beam="2">  1       21 0.13035162E-01 0.46235775E+03</pdfrwt>
<totfact> 0.50380234E+04</totfact>
</mgrwt>
</event>
<event>
 7    0  0.4709932E-002  0.4566293E+03  0.7546771E-02  0.1025763E+00
         21   -1    0    0  502  501  0.00000000000E+00  0.00000000000E+00  0.14640967744E+04  0.14640967744E+04  0.00000000000E+00 0. -1.
         21   -1    0    0  501  502 -0.00000000000E+00 -0.00000000000E+00 -0.35603918946E+02  0.35603918946E+02  0.00000000000E+00 0. -1.
      99926    2    1    2    0    0  0.00000000000E+00 -0.35527136788E-14  0.14284928555E+04  0.14997006933E+04  0.45662931524E+03 0.  0.
      99925    2    3    3    0    0 -0.11024356222E+03  0.25086587509E+02  0.83409302038E+03  0.88184824177E+03  0.26298702436E+03 0.  0.
         25    1    4    4    0    0 -0.44172528574E+02 -0.13998098463E+02  0.30756308658E+03  0.33524575966E+03  0.12509000000E+03 0.  0.
         25    1    4    4    0    0 -0.66071033646E+02  0.39084685972E+02  0.52652993380E+03  0.54660248211E+03  0.12509000000E+03 0.  0.
         25    1    3    3    0    0  0.11024356222E+03 -0.25086587509E+02  0.59439983507E+03  0.61785245158E+03  0.12509000000E+03 0.  0.
<mgrwt>
<rscale>  2 0.45662932E+03</rscale>
<asrwt>0</asrwt>
<pdfrwt beam="1">  1       21 0.21530831E+00 0.45662932E+03</pdfrwt>
<pdfrwt beam="2">  1       21 0.52358714E-02 0.45662932E+03</pdfrwt>
<totfact> 0.23487806E+04</totfact>
</mgrwt>
</event>
<event>
 7    0  0.4709932E-002  0.4551695E+03  0.7546771E-02  0.1026192E+00
         21   -1    0    0  502  501  0.00000000000E+00  0.00000000000E+00  0.70669262691E+03  0.70669262691E+03  0.00000000000E+00 0.  1.
         21   -1    0    0  501  502 -0.00000000000E+00 -0.00000000000E+00 -0.73291846979E+02  0.73291846979E+02  0.00000000000E+00 0.  1.
      99926    2    1    2    0    0  0.00000000000E+00  0.71054273576E-14  0.63340077993E+03  0.77998447389E+03  0.45516945360E+03 0.  0.
      99925    2    3    3    0    0 -0.91445412473E+02 -0.53602327277E+02  0.32972139630E+03  0.43486978412E+03  0.26298299757E+03 0.  0.
         25    1    4    4    0    0 -0.62021875282E+02 -0.37675186666E+02  0.22891885148E+03  0.27077200994E+03  0.12509000000E+03 0.  0.
         25    1    3    3    0    0  0.91445412473E+02  0.53602327277E+02  0.30367938363E+03  0.34511468977E+03  0.12509000000E+03 0.  0.
         25    1    4    4    0    0 -0.29423537190E+02 -0.15927140611E+02  0.10080254482E+03  0.16409777418E+03  0.12509000000E+03 0.  0.
<mgrwt>
<rscale>  2 0.45516945E+03</rscale>
<asrwt>0</asrwt>
<pdfrwt beam="1">  1       21 0.10392538E+00 0.45516945E+03</pdfrwt>
<pdfrwt beam="2">  1       21 0.10778213E-01 0.45516945E+03</pdfrwt>
<totfact> 0.48683429E+04</totfact>
</mgrwt>
</event>
<event>
 7    0  0.4709932E-002  0.4522450E+03  0.7546771E-02  0.1027055E+00
         21   -1    0    0  502  501  0.00000000000E+00  0.00000000000E+00  0.14881362722E+03  0.14881362722E+03  0.00000000000E+00 0.  1.
         21   -1    0    0  501  502 -0.00000000000E+00 -0.00000000000E+00 -0.34359335873E+03  0.34359335873E+03  0.00000000000E+00 0.  1.
      99926    2    1    2    0    0  0.00000000000E+00 -0.71054273576E-14 -0.19477973152E+03  0.49240698595E+03  0.45224495133E+03 0.  0.
      99925    2    3    3    0    0 -0.52534007934E+02 -0.60409184924E+02 -0.41338169837E+02  0.27886328419E+03  0.26390679296E+03 0.  0.
         25    1    4    4    0    0 -0.74527192713E+01 -0.75833631588E+00 -0.44821987316E+02  0.13308883028E+03  0.12509000000E+03 0.  0.
         25    1    4    4    0    0 -0.45081288663E+02 -0.59650848608E+02  0.34838174786E+01  0.14577445391E+03  0.12509000000E+03 0.  0.
         25    1    3    3    0    0  0.52534007934E+02  0.60409184924E+02 -0.15344156168E+03  0.21354370176E+03  0.12509000000E+03 0.  0.
<mgrwt>
<rscale>  2 0.45224495E+03</rscale>
<asrwt>0</asrwt>
<pdfrwt beam="1">  1       21 0.21884357E-01 0.45224495E+03</pdfrwt>
<pdfrwt beam="2">  1       21 0.50528434E-01 0.45224495E+03</pdfrwt>
<totfact> 0.67266659E+04</totfact>
</mgrwt>
</event>
<event>
 7    0  0.4709932E-002  0.4476587E+03  0.7546771E-02  0.1028423E+00
         21   -1    0    0  502  501  0.00000000000E+00  0.00000000000E+00  0.60303583157E+02  0.60303583157E+02  0.00000000000E+00 0. -1.
         21   -1    0    0  501  502 -0.00000000000E+00 -0.00000000000E+00 -0.83078927272E+03  0.83078927272E+03  0.00000000000E+00 0. -1.
      99926    2    1    2    0    0  0.00000000000E+00 -0.35527136788E-14 -0.77048568956E+03  0.89109285588E+03  0.44765866458E+03 0.  0.
      99925    2    3    3    0    0  0.57857832300E+02  0.28679980891E+02 -0.32034670152E+03  0.41945455515E+03  0.26296396064E+03 0.  0.
         25    1    4    4    0    0  0.62679983970E+02  0.36790150411E+02 -0.15691936031E+03  0.21343263410E+03  0.12509000000E+03 0.  0.
         25    1    3    3    0    0 -0.57857832300E+02 -0.28679980891E+02 -0.45013898804E+03  0.47163830073E+03  0.12509000000E+03 0.  0.
         25    1    4    4    0    0 -0.48221516696E+01 -0.81101695208E+01 -0.16342734121E+03  0.20602192105E+03  0.12509000000E+03 0.  0.
<mgrwt>
<rscale>  2 0.44765866E+03</rscale>
<asrwt>0</asrwt>
<pdfrwt beam="1">  1       21 0.88681747E-02 0.44765866E+03</pdfrwt>
<pdfrwt beam="2">  1       21 0.12217488E+00 0.44765866E+03</pdfrwt>
<totfact> 0.46221203E+04</totfact>
</mgrwt>
</event>
<event>
 7    0  0.4709932E-002  0.4563338E+03  0.7546771E-02  0.1025850E+00
         21   -1    0    0  502  501  0.00000000000E+00  0.00000000000E+00  0.99366802765E+02  0.99366802765E+02  0.00000000000E+00 0. -1.
         21   -1    0    0  501  502 -0.00000000000E+00 -0.00000000000E+00 -0.52391876566E+03  0.52391876566E+03  0.00000000000E+00 0. -1.
      99926    2    1    2    0    0  0.14210854715E-13  0.00000000000E+00 -0.42455196290E+03  0.62328556843E+03  0.45633379297E+03 0.  0.
      99925    2    3    3    0    0  0.72907297840E+02  0.81772833263E+02 -0.22191890646E+03  0.36115977039E+03  0.26303252339E+03 0.  0.
         25    1    3    3    0    0 -0.72907297840E+02 -0.81772833263E+02 -0.20263305643E+03  0.26212579804E+03  0.12509000000E+03 0.  0.
         25    1    4    4    0    0  0.48957136122E+02  0.66347808037E+01 -0.81630380746E+02  0.15732720252E+03  0.12509000000E+03 0.  0.
         25    1    4    4    0    0  0.23950161719E+02  0.75138052459E+02 -0.14028852572E+03  0.20383256786E+03  0.12509000000E+03 0.  0.
<mgrwt>
<rscale>  2 0.45633379E+03</rscale>
<asrwt>0</asrwt>
<pdfrwt beam="1">  1       21 0.14612765E-01 0.45633379E+03</pdfrwt>
<pdfrwt beam="2">  1       21 0.77046877E-01 0.45633379E+03</pdfrwt>
<totfact> 0.56668238E+04</totfact>
</mgrwt>
</event>
<event>
 7    0  0.4709932E-002  0.4633322E+03  0.7546771E-02  0.1023819E+00
         21   -1    0    0  502  501  0.00000000000E+00  0.00000000000E+00  0.18434928084E+03  0.18434928084E+03  0.00000000000E+00 0.  1.
         21   -1    0    0  501  502 -0.00000000000E+00 -0.00000000000E+00 -0.29112765017E+03  0.29112765017E+03  0.00000000000E+00 0.  1.
      99926    2    1    2    0    0  0.14210854715E-13  0.17763568394E-14 -0.10677836933E+03  0.47547693100E+03  0.46333216137E+03 0.  0.
      99925    2    3    3    0    0  0.11993562013E+03 -0.15418276559E+02 -0.72162383719E+02  0.29808456705E+03  0.26272556644E+03 0.  0.
         25    1    3    3    0    0 -0.11993562013E+03  0.15418276559E+02 -0.34615985612E+02  0.17739236395E+03  0.12509000000E+03 0.  0.
         25    1    4    4    0    0  0.44793672218E+02  0.30310412841E+02 -0.32496238670E+02  0.14010249043E+03  0.12509000000E+03 0.  0.
         25    1    4    4    0    0  0.75141947913E+02 -0.45728689400E+02 -0.39666145049E+02  0.15798207662E+03  0.12509000000E+03 0.  0.
<mgrwt>
<rscale>  2 0.46333216E+03</rscale>
<asrwt>0</asrwt>
<pdfrwt beam="1">  1       21 0.27110189E-01 0.46333216E+03</pdfrwt>
<pdfrwt beam="2">  1       21 0.42812889E-01 0.46333216E+03</pdfrwt>
<totfact> 0.62777431E+04</totfact>
</mgrwt>
</event>
<event>
 7    0  0.4709932E-002  0.4540208E+03  0.7546771E-02  0.1026530E+00
         21   -1    0    0  502  501  0.00000000000E+00  0.00000000000E+00  0.59366233031E+03  0.59366233031E+03  0.00000000000E+00 0.  1.
         21   -1    0    0  501  502 -0.00000000000E+00 -0.00000000000E+00 -0.86806471142E+02  0.86806471142E+02  0.00000000000E+00 0.  1.
      99926    2    1    2    0    0 -0.71054273576E-14  0.00000000000E+00  0.50685585916E+03  0.68046880145E+03  0.45402084509E+03 0.  0.
      99925    2    3    3    0    0  0.58958337745E+02  0.95430787404E+02  0.31681713227E+03  0.42680495579E+03  0.26307081597E+03 0.  0.
         25    1    3    3    0    0 -0.58958337745E+02 -0.95430787404E+02  0.19003872689E+03  0.25366384566E+03  0.12509000000E+03 0.  0.
         25    1    4    4    0    0 -0.27179720484E+01  0.64925297875E+02  0.18419789871E+03  0.23194623443E+03  0.12509000000E+03 0.  0.
         25    1    4    4    0    0  0.61676309794E+02  0.30505489529E+02  0.13261923356E+03  0.19485872136E+03  0.12509000000E+03 0.  0.
<mgrwt>
<rscale>  2 0.45402085E+03</rscale>
<asrwt>0</asrwt>
<pdfrwt beam="1">  1       21 0.87303282E-01 0.45402085E+03</pdfrwt>
<pdfrwt beam="2">  1       21 0.12765658E-01 0.45402085E+03</pdfrwt>
<totfact> 0.54394828E+04</totfact>
</mgrwt>
</event>
<event>
 6    0  0.4709932E-002  0.4388826E+03  0.7546771E-02  0.1031090E+00
         21   -1    0    0  502  501  0.00000000000E+00  0.00000000000E+00  0.18271399986E+03  0.18271399986E+03  0.00000000000E+00 0.  1.
         21   -1    0    0  501  502 -0.00000000000E+00 -0.00000000000E+00 -0.26355120274E+03  0.26355120274E+03  0.00000000000E+00 0.  1.
      99926    2    1    2    0    0  0.00000000000E+00 -0.35527136788E-14 -0.80837202885E+02  0.44626520260E+03  0.43888264683E+03 0.  0.
         25    1    3    3    0    0  0.61507462003E+02  0.18009539864E+02 -0.50962847411E+02  0.14950662636E+03  0.12509000000E+03 0.  0.
         25    1    3    3    0    0 -0.93870178627E+02  0.25981319798E+02 -0.10320335619E+02  0.15887308407E+03  0.12509000000E+03 0.  0.
         25    1    3    3    0    0  0.32362716624E+02 -0.43990859662E+02 -0.19554019855E+02  0.13788549218E+03  0.12509000000E+03 0.  0.
<mgrwt>
<rscale>  2 0.43888265E+03</rscale>
<asrwt>0</asrwt>
<pdfrwt beam="1">  1       21 0.26869706E-01 0.43888265E+03</pdfrwt>
<pdfrwt beam="2">  1       21 0.38757529E-01 0.43888265E+03</pdfrwt>
<totfact> 0.78848553E+04</totfact>
</mgrwt>
</event>
<event>
 7    0  0.4709932E-002  0.4545217E+03  0.7546771E-02  0.1026382E+00
         21   -1    0    0  502  501  0.00000000000E+00  0.00000000000E+00  0.48097850703E+03  0.48097850703E+03  0.00000000000E+00 0.  1.
         21   -1    0    0  501  502 -0.00000000000E+00 -0.00000000000E+00 -0.10738004750E+03  0.10738004750E+03  0.00000000000E+00 0.  1.
      99926    2    1    2    0    0  0.00000000000E+00  0.00000000000E+00  0.37359845953E+03  0.58835855453E+03  0.45452170436E+03 0.  0.
      99925    2    3    3    0    0 -0.39441946374E+02  0.10548302228E+03  0.23210089042E+03  0.36846902480E+03  0.26308983975E+03 0.  0.
         25    1    4    4    0    0 -0.67862517070E+01  0.49017754852E+02  0.16311360569E+03  0.21142930252E+03  0.12509000000E+03 0.  0.
         25    1    3    3    0    0  0.39441946374E+02 -0.10548302228E+03  0.14149756910E+03  0.21988952973E+03  0.12509000000E+03 0.  0.
         25    1    4    4    0    0 -0.32655694667E+02  0.56465267427E+02  0.68987284732E+02  0.15703972228E+03  0.12509000000E+03 0.  0.
<mgrwt>
<rscale>  2 0.45452170E+03</rscale>
<asrwt>0</asrwt>
<pdfrwt beam="1">  1       21 0.70732133E-01 0.45452170E+03</pdfrwt>
<pdfrwt beam="2">  1       21 0.15791184E-01 0.45452170E+03</pdfrwt>
<totfact> 0.59625699E+04</totfact>
</mgrwt>
</event>
<event>
 7    0  0.4709932E-002  0.4519214E+03  0.7546771E-02  0.1027151E+00
         21   -1    0    0  502  501  0.00000000000E+00  0.00000000000E+00  0.14723154024E+03  0.14723154024E+03  0.00000000000E+00 0. -1.
         21   -1    0    0  501  502 -0.00000000000E+00 -0.00000000000E+00 -0.34678879310E+03  0.34678879310E+03  0.00000000000E+00 0. -1.
      99926    2    1    2    0    0  0.71054273576E-14  0.17763568394E-14 -0.19955725286E+03  0.49402033335E+03  0.45192144516E+03 0.  0.
      99925    2    3    3    0    0  0.39010413910E+02  0.14431303118E+02 -0.14101657869E+02  0.26648712541E+03  0.26284302606E+03 0.  0.
         25    1    4    4    0    0  0.39048519186E+02 -0.11273708158E+02 -0.37254565289E+02  0.13670147798E+03  0.12509000000E+03 0.  0.
         25    1    4    4    0    0 -0.38105276416E-01  0.25705011275E+02  0.23152907420E+02  0.12978564743E+03  0.12509000000E+03 0.  0.
         25    1    3    3    0    0 -0.39010413910E+02 -0.14431303118E+02 -0.18545559499E+03  0.22753320794E+03  0.12509000000E+03 0.  0.
<mgrwt>
<rscale>  2 0.45192145E+03</rscale>
<asrwt>0</asrwt>
<pdfrwt beam="1">  1       21 0.21651698E-01 0.45192145E+03</pdfrwt>
<pdfrwt beam="2">  1       21 0.50998350E-01 0.45192145E+03</pdfrwt>
<totfact> 0.67323152E+04</totfact>
</mgrwt>
</event>
<event>
 7    0  0.4709932E-002  0.4530506E+03  0.7546771E-02  0.1026816E+00
         21   -1    0    0  502  501  0.00000000000E+00  0.00000000000E+00  0.53899930463E+02  0.53899930463E+02  0.00000000000E+00 0. -1.
         21   -1    0    0  501  502 -0.00000000000E+00 -0.00000000000E+00 -0.95201793808E+03  0.95201793808E+03  0.00000000000E+00 0. -1.
      99926    2    1    2    0    0  0.00000000000E+00 -0.17763568394E-14 -0.89811800762E+03  0.10059178685E+04  0.45305055198E+03 0.  0.
      99925    2    3    3    0    0 -0.47101364995E+02 -0.58113379049E+01 -0.78918127288E+03  0.83338662352E+03  0.26357896838E+03 0.  0.
         25    1    4    4    0    0 -0.56215854778E+02 -0.28332008975E+02 -0.39179014022E+03  0.41606483525E+03  0.12509000000E+03 0.  0.
         25    1    4    4    0    0  0.91144897836E+01  0.22520671070E+02 -0.39739113266E+03  0.41732178827E+03  0.12509000000E+03 0.  0.
         25    1    3    3    0    0  0.47101364995E+02  0.58113379049E+01 -0.10893673474E+03  0.17253124502E+03  0.12509000000E+03 0.  0.
<mgrwt>
<rscale>  2 0.45305055E+03</rscale>
<asrwt>0</asrwt>
<pdfrwt beam="1">  1       21 0.79264605E-02 0.45305055E+03</pdfrwt>
<pdfrwt beam="2">  1       21 0.14000263E+00 0.45305055E+03</pdfrwt>
<totfact> 0.39535854E+04</totfact>
</mgrwt>
</event>
<event>
 7    0  0.4709932E-002  0.4506995E+03  0.7546771E-02  0.1027514E+00
         21   -1    0    0  502  501  0.00000000000E+00  0.00000000000E+00  0.12932822478E+03  0.12932822478E+03  0.00000000000E+00 0. -1.
         21   -1    0    0  501  502 -0.00000000000E+00 -0.00000000000E+00 -0.39266377047E+03  0.39266377047E+03  0.00000000000E+00 0. -1.
      99926    2    1    2    0    0 -0.14210854715E-13  0.71054273576E-14 -0.26333554569E+03  0.52199199525E+03  0.45069949355E+03 0.  0.
      99925    2    3    3    0    0 -0.96808460294E+02  0.30660961695E+02 -0.21298390348E+03  0.35318806008E+03  0.26280732502E+03 0.  0.
         25    1    4    4    0    0 -0.82801278734E+02  0.28397498636E+02 -0.14282167131E+03  0.20906460146E+03  0.12509000000E+03 0.  0.
         25    1    4    4    0    0 -0.14007181560E+02  0.22634630595E+01 -0.70162232177E+02  0.14412345862E+03  0.12509000000E+03 0.  0.
         25    1    3    3    0    0  0.96808460294E+02 -0.30660961695E+02 -0.50351642206E+02  0.16880393517E+03  0.12509000000E+03 0.  0.
<mgrwt>
<rscale>  2 0.45069949E+03</rscale>
<asrwt>0</asrwt>
<pdfrwt beam="1">  1       21 0.19018857E-01 0.45069949E+03</pdfrwt>
<pdfrwt beam="2">  1       21 0.57744672E-01 0.45069949E+03</pdfrwt>
<totfact> 0.65972443E+04</totfact>
</mgrwt>
</event>
<event>
 7    0  0.4709932E-002  0.4641011E+03  0.7546771E-02  0.1023598E+00
         21   -1    0    0  502  501  0.00000000000E+00  0.00000000000E+00  0.31531481393E+02  0.31531481393E+02  0.00000000000E+00 0. -1.
         21   -1    0    0  501  502 -0.00000000000E+00 -0.00000000000E+00 -0.17077360271E+04  0.17077360271E+04  0.00000000000E+00 0. -1.
      99926    2    1    2    0    0  0.00000000000E+00  0.00000000000E+00 -0.16762045457E+04  0.17392675085E+04  0.46410105263E+03 0.  0.
      99925    2    3    3    0    0 -0.19127171047E+02  0.68414977715E+02 -0.67717498253E+03  0.72993404821E+03  0.26304239187E+03 0.  0.
         25    1    4    4    0    0 -0.12032418227E+01  0.26300311719E+02 -0.22759298340E+03  0.26103491793E+03  0.12509000000E+03 0.  0.
         25    1    4    4    0    0 -0.17923929225E+02  0.42114665996E+02 -0.44958199913E+03  0.46889913028E+03  0.12509000000E+03 0.  0.
         25    1    3    3    0    0  0.19127171047E+02 -0.68414977715E+02 -0.99902956318E+03  0.10093334603E+04  0.12509000000E+03 0.  0.
<mgrwt>
<rscale>  2 0.46410105E+03</rscale>
<asrwt>0</asrwt>
<pdfrwt beam="1">  1       21 0.46369824E-02 0.46410105E+03</pdfrwt>
<pdfrwt beam="2">  1       21 0.25113766E+00 0.46410105E+03</pdfrwt>
<totfact> 0.17207850E+04</totfact>
</mgrwt>
</event>
<event>
 7    0  0.4709932E-002  0.4552408E+03  0.7546771E-02  0.1026171E+00
         21   -1    0    0  502  501  0.00000000000E+00  0.00000000000E+00  0.20146090316E+03  0.20146090316E+03  0.00000000000E+00 0.  1.
         21   -1    0    0  501  502 -0.00000000000E+00 -0.00000000000E+00 -0.25717672556E+03  0.25717672556E+03  0.00000000000E+00 0.  1.
      99926    2    1    2    0    0  0.00000000000E+00  0.14210854715E-13 -0.55715822401E+02  0.45863762872E+03  0.45524083913E+03 0.  0.
      99925    2    3    3    0    0  0.61910215930E+02  0.78957792750E+02  0.18246119978E+02  0.28204463653E+03  0.26296206614E+03 0.  0.
         25    1    4    4    0    0  0.73099688867E+00  0.93682069667E+01  0.12398386381E+01  0.12544856698E+03  0.12509000000E+03 0.  0.
         25    1    3    3    0    0 -0.61910215930E+02 -0.78957792750E+02 -0.73961942379E+02  0.17659299220E+03  0.12509000000E+03 0.  0.
         25    1    4    4    0    0  0.61179219041E+02  0.69589585783E+02  0.17006281340E+02  0.15659606955E+03  0.12509000000E+03 0.  0.
<mgrwt>
<rscale>  2 0.45524084E+03</rscale>
<asrwt>0</asrwt>
<pdfrwt beam="1">  1       21 0.29626603E-01 0.45524084E+03</pdfrwt>
<pdfrwt beam="2">  1       21 0.37820107E-01 0.45524084E+03</pdfrwt>
<totfact> 0.68148939E+04</totfact>
</mgrwt>
</event>
<event>
 7    0  0.4709932E-002  0.4560471E+03  0.7546771E-02  0.1025934E+00
         21   -1    0    0  502  501  0.00000000000E+00  0.00000000000E+00  0.10913408889E+04  0.10913408889E+04  0.00000000000E+00 0.  1.
         21   -1    0    0  501  502 -0.00000000000E+00 -0.00000000000E+00 -0.47642991035E+02  0.47642991035E+02  0.00000000000E+00 0.  1.
      99926    2    1    2    0    0  0.14210854715E-13  0.00000000000E+00  0.10436978979E+04  0.11389838800E+04  0.45604712119E+03 0.  0.
      99925    2    3    3    0    0  0.77394477629E+02  0.22458915641E+02  0.85812022730E+03  0.90111650519E+03  0.26295688499E+03 0.  0.
         25    1    4    4    0    0  0.59892487731E+02 -0.60036330697E+01  0.34424451825E+03  0.37118048190E+03  0.12509000000E+03 0.  0.
         25    1    4    4    0    0  0.17501989899E+02  0.28462548711E+02  0.51387570905E+03  0.52993602329E+03  0.12509000000E+03 0.  0.
         25    1    3    3    0    0 -0.77394477629E+02 -0.22458915641E+02  0.18557767059E+03  0.23786737477E+03  0.12509000000E+03 0.  0.
<mgrwt>
<rscale>  2 0.45604712E+03</rscale>
<asrwt>0</asrwt>
<pdfrwt beam="1">  1       21 0.16049129E+00 0.45604712E+03</pdfrwt>
<pdfrwt beam="2">  1       21 0.70063229E-02 0.45604712E+03</pdfrwt>
<totfact> 0.33874985E+04</totfact>
</mgrwt>
</event>
<event>
 7    0  0.4709932E-002  0.4662981E+03  0.7546771E-02  0.1022970E+00
         21   -1    0    0  502  501  0.00000000000E+00  0.00000000000E+00  0.77367762470E+02  0.77367762470E+02  0.00000000000E+00 0. -1.
         21   -1    0    0  501  502 -0.00000000000E+00 -0.00000000000E+00 -0.70259844223E+03  0.70259844223E+03  0.00000000000E+00 0. -1.
      99926    2    1    2    0    0  0.00000000000E+00 -0.35527136788E-14 -0.62523067976E+03  0.77996620470E+03  0.46629805657E+03 0.  0.
      99925    2    3    3    0    0 -0.92120079599E+02  0.17488073665E+02 -0.25533947710E+03  0.37839559859E+03  0.26304569695E+03 0.  0.
         25    1    4    4    0    0 -0.20851632665E+02 -0.20972326938E+02 -0.13917141092E+03  0.18944872341E+03  0.12509000000E+03 0.  0.
         25    1    4    4    0    0 -0.71268446933E+02  0.38460400603E+02 -0.11616806618E+03  0.18894687519E+03  0.12509000000E+03 0.  0.
         25    1    3    3    0    0  0.92120079599E+02 -0.17488073665E+02 -0.36989120266E+03  0.40157060610E+03  0.12509000000E+03 0.  0.
<mgrwt>
<rscale>  2 0.46629806E+03</rscale>
<asrwt>0</asrwt>
<pdfrwt beam="1">  1       21 0.11377613E-01 0.46629806E+03</pdfrwt>
<pdfrwt beam="2">  1       21 0.10332330E+00 0.46629806E+03</pdfrwt>
<totfact> 0.44655443E+04</totfact>
</mgrwt>
</event>
<event>
 7    0  0.4709932E-002  0.4563862E+03  0.7546771E-02  0.1025835E+00
         21   -1    0    0  502  501  0.00000000000E+00  0.00000000000E+00  0.63015979529E+02  0.63015979529E+02  0.00000000000E+00 0. -1.
         21   -1    0    0  501  502 -0.00000000000E+00 -0.00000000000E+00 -0.82633164798E+03  0.82633164798E+03  0.00000000000E+00 0. -1.
      99926    2    1    2    0    0  0.14210854715E-13  0.00000000000E+00 -0.76331566845E+03  0.88934762750E+03  0.45638623210E+03 0.  0.
      99925    2    3    3    0    0  0.80495829054E+02  0.81136348309E+02 -0.49413919763E+03  0.57128133559E+03  0.26291848973E+03 0.  0.
         25    1    3    3    0    0 -0.80495829054E+02 -0.81136348309E+02 -0.26917647082E+03  0.31806629192E+03  0.12509000000E+03 0.  0.
         25    1    4    4    0    0  0.71200707142E+02  0.19408367022E+02 -0.28230863052E+03  0.31747739506E+03  0.12509000000E+03 0.  0.
         25    1    4    4    0    0  0.92951219121E+01  0.61727981287E+02 -0.21183056710E+03  0.25380394052E+03  0.12509000000E+03 0.  0.
<mgrwt>
<rscale>  2 0.45638623E+03</rscale>
<asrwt>0</asrwt>
<pdfrwt beam="1">  1       21 0.92670563E-02 0.45638623E+03</pdfrwt>
<pdfrwt beam="2">  1       21 0.12151935E+00 0.45638623E+03</pdfrwt>
<totfact> 0.43226325E+04</totfact>
</mgrwt>
</event>
<event>
 7    0  0.4709932E-002  0.4439708E+03  0.7546771E-02  0.1029535E+00
         21   -1    0    0  502  501  0.00000000000E+00  0.00000000000E+00  0.74843132230E+02  0.74843132230E+02  0.00000000000E+00 0.  1.
         21   -1    0    0  501  502 -0.00000000000E+00 -0.00000000000E+00 -0.65841082594E+03  0.65841082594E+03  0.00000000000E+00 0.  1.
      99926    2    1    2    0    0  0.00000000000E+00  0.00000000000E+00 -0.58356769371E+03  0.73325395817E+03  0.44397084818E+03 0.  0.
      99925    2    3    3    0    0  0.60829363145E+02 -0.44241458694E+02 -0.48597358597E+03  0.55767025718E+03  0.26299861481E+03 0.  0.
         25    1    4    4    0    0  0.56161362979E+02 -0.32029670603E+02 -0.31841711409E+03  0.34816226839E+03  0.12509000000E+03 0.  0.
         25    1    4    4    0    0  0.46680001660E+01 -0.12211788092E+02 -0.16755647189E+03  0.20950798879E+03  0.12509000000E+03 0.  0.
         25    1    3    3    0    0 -0.60829363145E+02  0.44241458694E+02 -0.97594107735E+02  0.17558370099E+03  0.12509000000E+03 0.  0.
<mgrwt>
<rscale>  2 0.44397085E+03</rscale>
<asrwt>0</asrwt>
<pdfrwt beam="1">  1       21 0.11006343E-01 0.44397085E+03</pdfrwt>
<pdfrwt beam="2">  1       21 0.96825120E-01 0.44397085E+03</pdfrwt>
<totfact> 0.55819882E+04</totfact>
</mgrwt>
</event>
<event>
 7    0  0.4709932E-002  0.4248707E+03  0.7546771E-02  0.1035493E+00
         21   -1    0    0  502  501  0.00000000000E+00  0.00000000000E+00  0.10404274031E+03  0.10404274031E+03  0.00000000000E+00 0.  1.
         21   -1    0    0  501  502 -0.00000000000E+00 -0.00000000000E+00 -0.43375225880E+03  0.43375225880E+03  0.00000000000E+00 0.  1.
      99926    2    1    2    0    0  0.00000000000E+00  0.00000000000E+00 -0.32970951849E+03  0.53779499911E+03  0.42487067972E+03 0.  0.
      99925    2    3    3    0    0  0.61663847742E+02  0.52919688910E+02 -0.22062105696E+03  0.35299585373E+03  0.26330495321E+03 0.  0.
         25    1    4    4    0    0  0.74267643182E+01  0.42272265633E+02 -0.70291687952E+02  0.14976825687E+03  0.12509000000E+03 0.  0.
         25    1    4    4    0    0  0.54237083424E+02  0.10647423277E+02 -0.15032936900E+03  0.20322759686E+03  0.12509000000E+03 0.  0.
         25    1    3    3    0    0 -0.61663847742E+02 -0.52919688910E+02 -0.10908846154E+03  0.18479914538E+03  0.12509000000E+03 0.  0.
<mgrwt>
<rscale>  2 0.42487068E+03</rscale>
<asrwt>0</asrwt>
<pdfrwt beam="1">  1       21 0.15300403E-01 0.42487068E+03</pdfrwt>
<pdfrwt beam="2">  1       21 0.63787096E-01 0.42487068E+03</pdfrwt>
<totfact> 0.80149710E+04</totfact>
</mgrwt>
</event>
<event>
 7    0  0.4709932E-002  0.4568870E+03  0.7546771E-02  0.1025688E+00
         21   -1    0    0  502  501  0.00000000000E+00  0.00000000000E+00  0.18174272527E+03  0.18174272527E+03  0.00000000000E+00 0. -1.
         21   -1    0    0  501  502 -0.00000000000E+00 -0.00000000000E+00 -0.28714452018E+03  0.28714452018E+03  0.00000000000E+00 0. -1.
      99926    2    1    2    0    0  0.35527136788E-14  0.71054273576E-14 -0.10540179490E+03  0.46888724545E+03  0.45688697790E+03 0.  0.
      99925    2    3    3    0    0 -0.18040449045E+02  0.34532822288E+02 -0.17714613143E+03  0.31951277795E+03  0.26303933123E+03 0.  0.
         25    1    3    3    0    0  0.18040449045E+02 -0.34532822288E+02  0.71744336531E+02  0.14937446750E+03  0.12509000000E+03 0.  0.
         25    1    4    4    0    0 -0.35705313733E+02  0.37032447904E+02 -0.62895381715E+02  0.14916302748E+03  0.12509000000E+03 0.  0.
         25    1    4    4    0    0  0.17664864688E+02 -0.24996256151E+01 -0.11425074972E+03  0.17034975047E+03  0.12509000000E+03 0.  0.
<mgrwt>
<rscale>  2 0.45688698E+03</rscale>
<asrwt>0</asrwt>
<pdfrwt beam="1">  1       21 0.26726872E-01 0.45688698E+03</pdfrwt>
<pdfrwt beam="2">  1       21 0.42227135E-01 0.45688698E+03</pdfrwt>
<totfact> 0.66517556E+04</totfact>
</mgrwt>
</event>
<event>
 7    0  0.4709932E-002  0.4512237E+03  0.7546771E-02  0.1027358E+00
         21   -1    0    0  502  501  0.00000000000E+00  0.00000000000E+00  0.21596154427E+03  0.21596154427E+03  0.00000000000E+00 0. -1.
         21   -1    0    0  501  502 -0.00000000000E+00 -0.00000000000E+00 -0.23569339391E+03  0.23569339391E+03  0.00000000000E+00 0. -1.
      99926    2    1    2    0    0  0.00000000000E+00  0.00000000000E+00 -0.19731849641E+02  0.45165493818E+03  0.45122371091E+03 0.  0.
      99925    2    3    3    0    0  0.69575121180E+02  0.67240515445E+02 -0.65262599330E+02  0.28708719628E+03  0.26229347494E+03 0.  0.
         25    1    4    4    0    0  0.32607880286E+02  0.55003961445E+02  0.52424173893E+00  0.14048662769E+03  0.12509000000E+03 0.  0.
         25    1    3    3    0    0 -0.69575121180E+02 -0.67240515445E+02  0.45530749689E+02  0.16456774189E+03  0.12509000000E+03 0.  0.
         25    1    4    4    0    0  0.36967240895E+02  0.12236554001E+02 -0.65786841069E+02  0.14660056859E+03  0.12509000000E+03 0.  0.
<mgrwt>
<rscale>  2 0.45122371E+03</rscale>
<asrwt>0</asrwt>
<pdfrwt beam="1">  1       21 0.31759051E-01 0.45122371E+03</pdfrwt>
<pdfrwt beam="2">  1       21 0.34660793E-01 0.45122371E+03</pdfrwt>
<totfact> 0.70903984E+04</totfact>
</mgrwt>
</event>
<event>
 7    0  0.4709932E-002  0.4587012E+03  0.7546771E-02  0.1025159E+00
         21   -1    0    0  502  501  0.00000000000E+00  0.00000000000E+00  0.12555704246E+04  0.12555704246E+04  0.00000000000E+00 0.  1.
         21   -1    0    0  501  502 -0.00000000000E+00 -0.00000000000E+00 -0.41894661161E+02  0.41894661161E+02  0.00000000000E+00 0.  1.
      99926    2    1    2    0    0  0.00000000000E+00 -0.14210854715E-13  0.12136757634E+04  0.12974650857E+04  0.45870119904E+03 0.  0.
      99925    2    3    3    0    0  0.32274803888E+02  0.10778038947E+03  0.67569342048E+03  0.73378895112E+03  0.26310900971E+03 0.  0.
         25    1    4    4    0    0 -0.16695448998E+00  0.18285220694E+02  0.35036269584E+03  0.37247268880E+03  0.12509000000E+03 0.  0.
         25    1    4    4    0    0  0.32441758378E+02  0.89495168778E+02  0.32533072464E+03  0.36131626232E+03  0.12509000000E+03 0.  0.
         25    1    3    3    0    0 -0.32274803888E+02 -0.10778038947E+03  0.53798234292E+03  0.56367613459E+03  0.12509000000E+03 0.  0.
<mgrwt>
<rscale>  2 0.45870120E+03</rscale>
<asrwt>0</asrwt>
<pdfrwt beam="1">  1       21 0.18464269E+00 0.45870120E+03</pdfrwt>
<pdfrwt beam="2">  1       21 0.61609804E-02 0.45870120E+03</pdfrwt>
<totfact> 0.28363036E+04</totfact>
</mgrwt>
</event>
<event>
 7    0  0.4709932E-002  0.4570704E+03  0.7546771E-02  0.1025634E+00
         21   -1    0    0  502  501  0.00000000000E+00  0.00000000000E+00  0.85533507458E+02  0.85533507458E+02  0.00000000000E+00 0. -1.
         21   -1    0    0  501  502 -0.00000000000E+00 -0.00000000000E+00 -0.61061838487E+03  0.61061838487E+03  0.00000000000E+00 0. -1.
      99926    2    1    2    0    0 -0.13322676296E-14 -0.35527136788E-14 -0.52508487741E+03  0.69615189233E+03  0.45707037610E+03 0.  0.
      99925    2    3    3    0    0  0.35257967666E+01  0.27180627946E+02 -0.15954026517E+03  0.30882568689E+03  0.26299998269E+03 0.  0.
         25    1    4    4    0    0  0.12808546710E+02  0.49998343842E+02 -0.99134900603E+02  0.16774722017E+03  0.12509000000E+03 0.  0.
         25    1    4    4    0    0 -0.92827499433E+01 -0.22817715897E+02 -0.60405364568E+02  0.14107846673E+03  0.12509000000E+03 0.  0.
         25    1    3    3    0    0 -0.35257967666E+01 -0.27180627946E+02 -0.36554461224E+03  0.38732620544E+03  0.12509000000E+03 0.  0.
<mgrwt>
<rscale>  2 0.45707038E+03</rscale>
<asrwt>0</asrwt>
<pdfrwt beam="1">  1       21 0.12578457E-01 0.45707038E+03</pdfrwt>
<pdfrwt beam="2">  1       21 0.89796820E-01 0.45707038E+03</pdfrwt>
<totfact> 0.52255663E+04</totfact>
</mgrwt>
</event>
<event>
 7    0  0.4709932E-002  0.4655345E+03  0.7546771E-02  0.1023188E+00
         21   -1    0    0  502  501  0.00000000000E+00  0.00000000000E+00  0.12847267557E+03  0.12847267557E+03  0.00000000000E+00 0.  1.
         21   -1    0    0  501  502 -0.00000000000E+00 -0.00000000000E+00 -0.42172852824E+03  0.42172852824E+03  0.00000000000E+00 0.  1.
      99926    2    1    2    0    0  0.00000000000E+00  0.00000000000E+00 -0.29325585267E+03  0.55020120382E+03  0.46553449878E+03 0.  0.
      99925    2    3    3    0    0 -0.42095297186E+02 -0.66644019064E+02 -0.71473287619E+02  0.28365204590E+03  0.26293842051E+03 0.  0.
         25    1    3    3    0    0  0.42095297186E+02  0.66644019064E+02 -0.22178256505E+03  0.26654915791E+03  0.12509000000E+03 0.  0.
         25    1    4    4    0    0 -0.22072352251E+02  0.54388288220E+01 -0.48612967673E+02  0.13611575338E+03  0.12509000000E+03 0.  0.
         25    1    4    4    0    0 -0.20022944936E+02 -0.72082847886E+02 -0.22860319946E+02  0.14753629252E+03  0.12509000000E+03 0.  0.
<mgrwt>
<rscale>  2 0.46553450E+03</rscale>
<asrwt>0</asrwt>
<pdfrwt beam="1">  1       21 0.18893041E-01 0.46553450E+03</pdfrwt>
<pdfrwt beam="2">  1       21 0.62018900E-01 0.46553450E+03</pdfrwt>
<totfact> 0.56954722E+04</totfact>
</mgrwt>
</event>
<event>
 7    0  0.4709932E-002  0.4433445E+03  0.7546771E-02  0.1029726E+00
         21   -1    0    0  502  501  0.00000000000E+00  0.00000000000E+00  0.12845307958E+04  0.12845307958E+04  0.00000000000E+00 0. -1.
         21   -1    0    0  501  502 -0.00000000000E+00 -0.00000000000E+00 -0.38254105280E+02  0.38254105280E+02  0.00000000000E+00 0. -1.
      99926    2    1    2    0    0  0.14210854715E-13 -0.71054273576E-14  0.12462766905E+04  0.13227849011E+04  0.44334445434E+03 0.  0.
      99925    2    3    3    0    0 -0.87311723510E+02  0.44480280815E+02  0.86934318372E+03  0.91372719233E+03  0.26370054697E+03 0.  0.
         25    1    4    4    0    0 -0.65459835430E+02  0.58594442696E+02  0.50526578929E+03  0.52788192306E+03  0.12509000000E+03 0.  0.
         25    1    3    3    0    0  0.87311723510E+02 -0.44480280815E+02  0.37693350681E+03  0.40905770876E+03  0.12509000000E+03 0.  0.
         25    1    4    4    0    0 -0.21851888079E+02 -0.14114161881E+02  0.36407739443E+03  0.38584526926E+03  0.12509000000E+03 0.  0.
<mgrwt>
<rscale>  2 0.44334445E+03</rscale>
<asrwt>0</asrwt>
<pdfrwt beam="1">  1       21 0.18890156E+00 0.44334445E+03</pdfrwt>
<pdfrwt beam="2">  1       21 0.56256046E-02 0.44334445E+03</pdfrwt>
<totfact> 0.31192845E+04</totfact>
</mgrwt>
</event>
<event>
 7    0  0.4709932E-002  0.4468363E+03  0.7546771E-02  0.1028670E+00
         21   -1    0    0  502  501  0.00000000000E+00  0.00000000000E+00  0.82584287231E+03  0.82584287231E+03  0.00000000000E+00 0. -1.
         21   -1    0    0  501  502 -0.00000000000E+00 -0.00000000000E+00 -0.60442089077E+02  0.60442089077E+02  0.00000000000E+00 0. -1.
      99926    2    1    2    0    0  0.00000000000E+00  0.00000000000E+00  0.76540078323E+03  0.88628496139E+03  0.44683629419E+03 0.  0.
      99925    2    3    3    0    0 -0.86128350512E+01 -0.34841588801E+02  0.68199493765E+03  0.73171407016E+03  0.26267902134E+03 0.  0.
         25    1    4    4    0    0 -0.24366527566E+02 -0.76417337724E+01  0.43110936671E+03  0.44961641198E+03  0.12509000000E+03 0.  0.
         25    1    4    4    0    0  0.15753692515E+02 -0.27199855029E+02  0.25088557094E+03  0.28209765817E+03  0.12509000000E+03 0.  0.
         25    1    3    3    0    0  0.86128350512E+01  0.34841588801E+02  0.83405845582E+02  0.15457089123E+03  0.12509000000E+03 0.  0.
<mgrwt>
<rscale>  2 0.44683629E+03</rscale>
<asrwt>0</asrwt>
<pdfrwt beam="1">  1       21 0.12144747E+00 0.44683629E+03</pdfrwt>
<pdfrwt beam="2">  1       21 0.88885430E-02 0.44683629E+03</pdfrwt>
<totfact> 0.46749765E+04</totfact>
</mgrwt>
</event>
<event>
 7    0  0.4709932E-002  0.4452541E+03  0.7546771E-02  0.1029147E+00
         21   -1    0    0  502  501  0.00000000000E+00  0.00000000000E+00  0.10801091923E+03  0.10801091923E+03  0.00000000000E+00 0.  1.
         21   -1    0    0  501  502 -0.00000000000E+00 -0.00000000000E+00 -0.45886841260E+03  0.45886841260E+03  0.00000000000E+00 0.  1.
      99926    2    1    2    0    0  0.35527136788E-14  0.00000000000E+00 -0.35085749337E+03  0.56687933182E+03  0.44525408049E+03 0.  0.
      99925    2    3    3    0    0 -0.30084493176E+02  0.98518445941E+02 -0.20774005754E+03  0.35068250146E+03  0.26308045234E+03 0.  0.
         25    1    4    4    0    0  0.20970146380E+02  0.66767512772E+02 -0.96164679268E+02  0.17260591369E+03  0.12509000000E+03 0.  0.
         25    1    3    3    0    0  0.30084493176E+02 -0.98518445941E+02 -0.14311743583E+03  0.21619683036E+03  0.12509000000E+03 0.  0.
         25    1    4    4    0    0 -0.51054639555E+02  0.31750933169E+02 -0.11157537827E+03  0.17807658777E+03  0.12509000000E+03 0.  0.
<mgrwt>
<rscale>  2 0.44525408E+03</rscale>
<asrwt>0</asrwt>
<pdfrwt beam="1">  1       21 0.15883959E-01 0.44525408E+03</pdfrwt>
<pdfrwt beam="2">  1       21 0.67480648E-01 0.44525408E+03</pdfrwt>
<totfact> 0.65682595E+04</totfact>
</mgrwt>
</event>
<event>
 7    0  0.4709932E-002  0.4589288E+03  0.7546771E-02  0.1025092E+00
         21   -1    0    0  502  501  0.00000000000E+00  0.00000000000E+00  0.73212958655E+02  0.73212958655E+02  0.00000000000E+00 0. -1.
         21   -1    0    0  501  502 -0.00000000000E+00 -0.00000000000E+00 -0.71918831035E+03  0.71918831035E+03  0.00000000000E+00 0. -1.
      99926    2    1    2    0    0  0.17763568394E-14  0.00000000000E+00 -0.64597535170E+03  0.79240126901E+03  0.45892877021E+03 0.  0.
      99925    2    3    3    0    0 -0.96345617076E+01 -0.10006216427E+03 -0.50766051824E+03  0.58054338563E+03  0.26307063560E+03 0.  0.
         25    1    4    4    0    0  0.35423682889E+02 -0.44239068163E+02 -0.25505596227E+03  0.28967737994E+03  0.12509000000E+03 0.  0.
         25    1    4    4    0    0 -0.45058244596E+02 -0.55823096102E+02 -0.25260455597E+03  0.29086600568E+03  0.12509000000E+03 0.  0.
         25    1    3    3    0    0  0.96345617076E+01  0.10006216427E+03 -0.13831483345E+03  0.21185788338E+03  0.12509000000E+03 0.  0.
<mgrwt>
<rscale>  2 0.45892877E+03</rscale>
<asrwt>0</asrwt>
<pdfrwt beam="1">  1       21 0.10766612E-01 0.45892877E+03</pdfrwt>
<pdfrwt beam="2">  1       21 0.10576298E+00 0.45892877E+03</pdfrwt>
<totfact> 0.46678550E+04</totfact>
</mgrwt>
</event>
<event>
 7    0  0.4709932E-002  0.4548021E+03  0.7546771E-02  0.1026300E+00
         21   -1    0    0  502  501  0.00000000000E+00  0.00000000000E+00  0.19315574931E+03  0.19315574931E+03  0.00000000000E+00 0. -1.
         21   -1    0    0  501  502 -0.00000000000E+00 -0.00000000000E+00 -0.26771779005E+03  0.26771779005E+03  0.00000000000E+00 0. -1.
      99926    2    1    2    0    0  0.00000000000E+00  0.00000000000E+00 -0.74562040740E+02  0.46087353937E+03  0.45480206834E+03 0.  0.
      99925    2    3    3    0    0 -0.10784313256E+03 -0.33627257804E+02 -0.44517220399E+02  0.28966859482E+03  0.26299273413E+03 0.  0.
         25    1    3    3    0    0  0.10784313256E+03  0.33627257804E+02 -0.30044820341E+02  0.17120494455E+03  0.12509000000E+03 0.  0.
         25    1    4    4    0    0 -0.41262617297E+02  0.24713384235E+01 -0.55649330139E+02  0.14301422008E+03  0.12509000000E+03 0.  0.
         25    1    4    4    0    0 -0.66580515266E+02 -0.36098596228E+02  0.11132109740E+02  0.14665437474E+03  0.12509000000E+03 0.  0.
<mgrwt>
<rscale>  2 0.45480207E+03</rscale>
<asrwt>0</asrwt>
<pdfrwt beam="1">  1       21 0.28405257E-01 0.45480207E+03</pdfrwt>
<pdfrwt beam="2">  1       21 0.39370263E-01 0.45480207E+03</pdfrwt>
<totfact> 0.68224514E+04</totfact>
</mgrwt>
</event>
<event>
 7    0  0.4709932E-002  0.4420612E+03  0.7546771E-02  0.1030116E+00
         21   -1    0    0  502  501  0.00000000000E+00  0.00000000000E+00  0.26584487352E+03  0.26584487352E+03  0.00000000000E+00 0. -1.
         21   -1    0    0  501  502 -0.00000000000E+00 -0.00000000000E+00 -0.18377078022E+03  0.18377078022E+03  0.00000000000E+00 0. -1.
      99926    2    1    2    0    0 -0.71054273576E-14  0.71054273576E-14  0.82074093295E+02  0.44961565374E+03  0.44206117144E+03 0.  0.
      99925    2    3    3    0    0 -0.16863890862E+02  0.42932364366E+02 -0.38510741040E+02  0.26984972511E+03  0.26307454883E+03 0.  0.
         25    1    4    4    0    0 -0.42899025043E+02  0.31823756565E+02 -0.39349390056E+02  0.14159435169E+03  0.12509000000E+03 0.  0.
         25    1    4    4    0    0  0.26035134181E+02  0.11108607801E+02  0.83864901597E+00  0.12825537342E+03  0.12509000000E+03 0.  0.
         25    1    3    3    0    0  0.16863890862E+02 -0.42932364366E+02  0.12058483434E+03  0.17976592863E+03  0.12509000000E+03 0.  0.
<mgrwt>
<rscale>  2 0.44206117E+03</rscale>
<asrwt>0</asrwt>
<pdfrwt beam="1">  1       21 0.39094834E-01 0.44206117E+03</pdfrwt>
<pdfrwt beam="2">  1       21 0.27025115E-01 0.44206117E+03</pdfrwt>
<totfact> 0.76540602E+04</totfact>
</mgrwt>
</event>
<event>
 7    0  0.4709932E-002  0.4537556E+03  0.7546771E-02  0.1026608E+00
         21   -1    0    0  502  501  0.00000000000E+00  0.00000000000E+00  0.43755981380E+02  0.43755981380E+02  0.00000000000E+00 0.  1.
         21   -1    0    0  501  502 -0.00000000000E+00 -0.00000000000E+00 -0.11763769093E+04  0.11763769093E+04  0.00000000000E+00 0.  1.
      99926    2    1    2    0    0  0.71054273576E-14 -0.14210854715E-13 -0.11326209280E+04  0.12201328907E+04  0.45375555596E+03 0.  0.
      99925    2    3    3    0    0 -0.42458854384E+02  0.75057905436E+02 -0.90570709525E+03  0.94705078025E+03  0.26298934294E+03 0.  0.
         25    1    4    4    0    0 -0.67320591433E+01 -0.24756085209E+01 -0.40348330124E+03  0.42248991910E+03  0.12509000000E+03 0.  0.
         25    1    4    4    0    0 -0.35726795241E+02  0.77533513957E+02 -0.50222379401E+03  0.52456086115E+03  0.12509000000E+03 0.  0.
         25    1    3    3    0    0  0.42458854384E+02 -0.75057905436E+02 -0.22691383271E+03  0.27308211047E+03  0.12509000000E+03 0.  0.
<mgrwt>
<rscale>  2 0.45375556E+03</rscale>
<asrwt>0</asrwt>
<pdfrwt beam="1">  1       21 0.64347040E-02 0.45375556E+03</pdfrwt>
<pdfrwt beam="2">  1       21 0.17299658E+00 0.45375556E+03</pdfrwt>
<totfact> 0.31831668E+04</totfact>
</mgrwt>
</event>
<event>
 7    0  0.4709932E-002  0.4474953E+03  0.7546771E-02  0.1028472E+00
         21   -1    0    0  502  501  0.00000000000E+00  0.00000000000E+00  0.80533220219E+02  0.80533220219E+02  0.00000000000E+00 0.  1.
         21   -1    0    0  501  502 -0.00000000000E+00 -0.00000000000E+00 -0.62164420309E+03  0.62164420309E+03  0.00000000000E+00 0.  1.
      99926    2    1    2    0    0 -0.35527136788E-14 -0.14210854715E-13 -0.54111098287E+03  0.70217742331E+03  0.44749529385E+03 0.  0.
      99925    2    3    3    0    0 -0.27849768521E+02 -0.71994534895E+02 -0.22778468721E+03  0.35608538597E+03  0.26258734872E+03 0.  0.
         25    1    4    4    0    0 -0.13957854835E+01 -0.15540303672E+02 -0.66007911224E+02  0.14229547322E+03  0.12509000000E+03 0.  0.
         25    1    4    4    0    0 -0.26453983038E+02 -0.56454231223E+02 -0.16177677599E+03  0.21378991274E+03  0.12509000000E+03 0.  0.
         25    1    3    3    0    0  0.27849768521E+02  0.71994534895E+02 -0.31332629566E+03  0.34609203734E+03  0.12509000000E+03 0.  0.
<mgrwt>
<rscale>  2 0.44749529E+03</rscale>
<asrwt>0</asrwt>
<pdfrwt beam="1">  1       21 0.11843121E-01 0.44749529E+03</pdfrwt>
<pdfrwt beam="2">  1       21 0.91418260E-01 0.44749529E+03</pdfrwt>
<totfact> 0.56020671E+04</totfact>
</mgrwt>
</event>
<event>
 7    0  0.4709932E-002  0.4559864E+03  0.7546771E-02  0.1025952E+00
         21   -1    0    0  502  501  0.00000000000E+00  0.00000000000E+00  0.18377989062E+03  0.18377989062E+03  0.00000000000E+00 0.  1.
         21   -1    0    0  501  502 -0.00000000000E+00 -0.00000000000E+00 -0.28284319698E+03  0.28284319698E+03  0.00000000000E+00 0.  1.
      99926    2    1    2    0    0  0.14210854715E-13  0.71054273576E-14 -0.99063306363E+02  0.46662308761E+03  0.45598636736E+03 0.  0.
      99925    2    3    3    0    0 -0.10764553527E+03 -0.36590333230E+02 -0.70049666772E+02  0.29511299131E+03  0.26316973245E+03 0.  0.
         25    1    4    4    0    0 -0.89934799063E+02  0.35192681919E+01 -0.35807282323E+02  0.15820974337E+03  0.12509000000E+03 0.  0.
         25    1    3    3    0    0  0.10764553527E+03  0.36590333230E+02 -0.29013639591E+02  0.17151009629E+03  0.12509000000E+03 0.  0.
         25    1    4    4    0    0 -0.17710736202E+02 -0.40109601422E+02 -0.34242384449E+02  0.13690324794E+03  0.12509000000E+03 0.  0.
<mgrwt>
<rscale>  2 0.45598637E+03</rscale>
<asrwt>0</asrwt>
<pdfrwt beam="1">  1       21 0.27026455E-01 0.45598637E+03</pdfrwt>
<pdfrwt beam="2">  1       21 0.41594587E-01 0.45598637E+03</pdfrwt>
<totfact> 0.67161213E+04</totfact>
</mgrwt>
</event>
<event>
 7    0  0.4709932E-002  0.4431571E+03  0.7546771E-02  0.1029783E+00
         21   -1    0    0  502  501  0.00000000000E+00  0.00000000000E+00  0.56193235534E+03  0.56193235534E+03  0.00000000000E+00 0. -1.
         21   -1    0    0  501  502 -0.00000000000E+00 -0.00000000000E+00 -0.87371811387E+02  0.87371811387E+02  0.00000000000E+00 0. -1.
      99926    2    1    2    0    0  0.00000000000E+00 -0.88817841970E-15  0.47456054395E+03  0.64930416673E+03  0.44315707266E+03 0.  0.
      99925    2    3    3    0    0 -0.74353414936E+02 -0.31622214739E+01  0.20065277090E+03  0.33912453136E+03  0.26306935083E+03 0.  0.
         25    1    4    4    0    0 -0.36566497068E+02 -0.11640801160E+02  0.14916179938E+03  0.19841715514E+03  0.12509000000E+03 0.  0.
         25    1    4    4    0    0 -0.37786917868E+02  0.84785796858E+01  0.51490971523E+02  0.14070737622E+03  0.12509000000E+03 0.  0.
         25    1    3    3    0    0  0.74353414936E+02  0.31622214739E+01  0.27390777305E+03  0.31017963536E+03  0.12509000000E+03 0.  0.
<mgrwt>
<rscale>  2 0.44315707E+03</rscale>
<asrwt>0</asrwt>
<pdfrwt beam="1">  1       21 0.82637109E-01 0.44315707E+03</pdfrwt>
<pdfrwt beam="2">  1       21 0.12848796E-01 0.44315707E+03</pdfrwt>
<totfact> 0.61267406E+04</totfact>
</mgrwt>
</event>
<event>
 7    0  0.4709932E-002  0.4541061E+03  0.7546771E-02  0.1026505E+00
         21   -1    0    0  502  501  0.00000000000E+00  0.00000000000E+00  0.73819513995E+02  0.73819513995E+02  0.00000000000E+00 0.  1.
         21   -1    0    0  501  502 -0.00000000000E+00 -0.00000000000E+00 -0.69836675326E+03  0.69836675326E+03  0.00000000000E+00 0.  1.
      99926    2    1    2    0    0  0.00000000000E+00  0.00000000000E+00 -0.62454723926E+03  0.77218626725E+03  0.45410612996E+03 0.  0.
      99925    2    3    3    0    0 -0.10174810776E+03  0.94165857956E+01 -0.47264630504E+03  0.55045951777E+03  0.26300152378E+03 0.  0.
         25    1    4    4    0    0 -0.17069259549E+02  0.74749842469E+01 -0.16666843469E+03  0.20922024336E+03  0.12509000000E+03 0.  0.
         25    1    4    4    0    0 -0.84678848210E+02  0.19416015487E+01 -0.30597787035E+03  0.34123927440E+03  0.12509000000E+03 0.  0.
         25    1    3    3    0    0  0.10174810776E+03 -0.94165857956E+01 -0.15190093422E+03  0.22172674949E+03  0.12509000000E+03 0.  0.
<mgrwt>
<rscale>  2 0.45410613E+03</rscale>
<asrwt>0</asrwt>
<pdfrwt beam="1">  1       21 0.10855811E-01 0.45410613E+03</pdfrwt>
<pdfrwt beam="2">  1       21 0.10270099E+00 0.45410613E+03</pdfrwt>
<totfact> 0.49485854E+04</totfact>
</mgrwt>
</event>
<event>
 7    0  0.4709932E-002  0.4632811E+03  0.7546771E-02  0.1023834E+00
         21   -1    0    0  502  501  0.00000000000E+00  0.00000000000E+00  0.73125172209E+02  0.73125172209E+02  0.00000000000E+00 0. -1.
         21   -1    0    0  501  502 -0.00000000000E+00 -0.00000000000E+00 -0.73377392801E+03  0.73377392801E+03  0.00000000000E+00 0. -1.
      99926    2    1    2    0    0  0.00000000000E+00  0.00000000000E+00 -0.66064875580E+03  0.80689910022E+03  0.46328110192E+03 0.  0.
      99925    2    3    3    0    0  0.22225537885E+02  0.97295865786E+02 -0.53109657710E+03  0.60100656723E+03  0.26303014963E+03 0.  0.
         25    1    4    4    0    0  0.73209941349E+00  0.89432112882E+02 -0.27491633261E+03  0.31500021718E+03  0.12509000000E+03 0.  0.
         25    1    4    4    0    0  0.21493438471E+02  0.78637529045E+01 -0.25618024449E+03  0.28600635006E+03  0.12509000000E+03 0.  0.
         25    1    3    3    0    0 -0.22225537885E+02 -0.97295865786E+02 -0.12955217870E+03  0.20589253299E+03  0.12509000000E+03 0.  0.
<mgrwt>
<rscale>  2 0.46328110E+03</rscale>
<asrwt>0</asrwt>
<pdfrwt beam="1">  1       21 0.10753702E-01 0.46328110E+03</pdfrwt>
<pdfrwt beam="2">  1       21 0.10790793E+00 0.46328110E+03</pdfrwt>
<totfact> 0.44471721E+04</totfact>
</mgrwt>
</event>
<event>
 7    0  0.4709932E-002  0.4513996E+03  0.7546771E-02  0.1027305E+00
         21   -1    0    0  502  501  0.00000000000E+00  0.00000000000E+00  0.35061657779E+02  0.35061657779E+02  0.00000000000E+00 0. -1.
         21   -1    0    0  501  502 -0.00000000000E+00 -0.00000000000E+00 -0.14528803183E+04  0.14528803183E+04  0.00000000000E+00 0. -1.
      99926    2    1    2    0    0  0.00000000000E+00 -0.17763568394E-14 -0.14178186606E+04  0.14879419761E+04  0.45139956808E+03 0.  0.
      99925    2    3    3    0    0 -0.75855864168E+02  0.12273142914E+02 -0.11534854506E+04  0.11855774674E+04  0.26298384781E+03 0.  0.
         25    1    3    3    0    0  0.75855864168E+02 -0.12273142914E+02 -0.26433320994E+03  0.30236450873E+03  0.12509000000E+03 0.  0.
         25    1    4    4    0    0 -0.13702011450E+02  0.33276338819E+02 -0.47274686982E+03  0.49033883272E+03  0.12509000000E+03 0.  0.
         25    1    4    4    0    0 -0.62153852718E+02 -0.21003195904E+02 -0.68073858081E+03  0.69523863468E+03  0.12509000000E+03 0.  0.
<mgrwt>
<rscale>  2 0.45139957E+03</rscale>
<asrwt>0</asrwt>
<pdfrwt beam="1">  1       21 0.51561274E-02 0.45139957E+03</pdfrwt>
<pdfrwt beam="2">  1       21 0.21365882E+00 0.45139957E+03</pdfrwt>
<totfact> 0.24761508E+04</totfact>
</mgrwt>
</event>
<event>
 7    0  0.4709932E-002  0.4622461E+03  0.7546771E-02  0.1024132E+00
         21   -1    0    0  502  501  0.00000000000E+00  0.00000000000E+00  0.10587245144E+03  0.10587245144E+03  0.00000000000E+00 0. -1.
         21   -1    0    0  501  502 -0.00000000000E+00 -0.00000000000E+00 -0.50454931106E+03  0.50454931106E+03  0.00000000000E+00 0. -1.
      99926    2    1    2    0    0  0.00000000000E+00  0.00000000000E+00 -0.39867685961E+03  0.61042176250E+03  0.46224613545E+03 0.  0.
      99925    2    3    3    0    0  0.31272171753E+02 -0.32556731258E+02 -0.39579420517E+03  0.47740406716E+03  0.26310397379E+03 0.  0.
         25    1    4    4    0    0 -0.20862253798E+02 -0.19871134650E+02 -0.15981330437E+03  0.20498267239E+03  0.12509000000E+03 0.  0.
         25    1    4    4    0    0  0.52134425552E+02 -0.12685596608E+02 -0.23598090079E+03  0.27242139477E+03  0.12509000000E+03 0.  0.
         25    1    3    3    0    0 -0.31272171753E+02  0.32556731258E+02 -0.28826544480E+01  0.13301769534E+03  0.12509000000E+03 0.  0.
<mgrwt>
<rscale>  2 0.46224614E+03</rscale>
<asrwt>0</asrwt>
<pdfrwt beam="1">  1       21 0.15569478E-01 0.46224614E+03</pdfrwt>
<pdfrwt beam="2">  1       21 0.74198429E-01 0.46224614E+03</pdfrwt>
<totfact> 0.54834632E+04</totfact>
</mgrwt>
</event>
<event>
 7    0  0.4709932E-002  0.4528012E+03  0.7546771E-02  0.1026890E+00
         21   -1    0    0  502  501  0.00000000000E+00  0.00000000000E+00  0.41163792032E+02  0.41163792032E+02  0.00000000000E+00 0. -1.
         21   -1    0    0  501  502 -0.00000000000E+00 -0.00000000000E+00 -0.12452019252E+04  0.12452019252E+04  0.00000000000E+00 0. -1.
      99926    2    1    2    0    0  0.14210854715E-13  0.00000000000E+00 -0.12040381332E+04  0.12863657173E+04  0.45280120622E+03 0.  0.
      99925    2    3    3    0    0  0.10090564485E+03 -0.43182074943E+02 -0.80879967699E+03  0.85752123948E+03  0.26294318380E+03 0.  0.
         25    1    4    4    0    0  0.10109844822E+02 -0.21682208804E+02 -0.40785197731E+03  0.42727399949E+03  0.12509000000E+03 0.  0.
         25    1    4    4    0    0  0.90795800023E+02 -0.21499866139E+02 -0.40094769968E+03  0.43024723999E+03  0.12509000000E+03 0.  0.
         25    1    3    3    0    0 -0.10090564485E+03  0.43182074943E+02 -0.39523845622E+03  0.42884447779E+03  0.12509000000E+03 0.  0.
<mgrwt>
<rscale>  2 0.45280121E+03</rscale>
<asrwt>0</asrwt>
<pdfrwt beam="1">  1       21 0.60534982E-02 0.45280121E+03</pdfrwt>
<pdfrwt beam="2">  1       21 0.18311795E+00 0.45280121E+03</pdfrwt>
<totfact> 0.30023497E+04</totfact>
</mgrwt>
</event>
<event>
 7    0  0.4709932E-002  0.4740262E+03  0.7546771E-02  0.1020790E+00
         21   -1    0    0  502  501  0.00000000000E+00  0.00000000000E+00  0.35512614810E+03  0.35512614810E+03  0.00000000000E+00 0. -1.
         21   -1    0    0  501  502 -0.00000000000E+00 -0.00000000000E+00 -0.15818382081E+03  0.15818382081E+03  0.00000000000E+00 0. -1.
      99926    2    1    2    0    0  0.00000000000E+00  0.71054273576E-14  0.19694232729E+03  0.51330996892E+03  0.47402620593E+03 0.  0.
      99925    2    3    3    0    0 -0.10182261981E+03 -0.51149817427E+02  0.53705752426E+02  0.29161564286E+03  0.26300423112E+03 0.  0.
         25    1    4    4    0    0 -0.40008839145E+02 -0.48023056912E+02 -0.56557656541E+01  0.13995148084E+03  0.12509000000E+03 0.  0.
         25    1    3    3    0    0  0.10182261981E+03  0.51149817427E+02  0.14323657486E+03  0.22169432606E+03  0.12509000000E+03 0.  0.
         25    1    4    4    0    0 -0.61813780664E+02 -0.31267605148E+01  0.59361518080E+02  0.15166416202E+03  0.12509000000E+03 0.  0.
<mgrwt>
<rscale>  2 0.47402621E+03</rscale>
<asrwt>0</asrwt>
<pdfrwt beam="1">  1       21 0.52224433E-01 0.47402621E+03</pdfrwt>
<pdfrwt beam="2">  1       21 0.23262327E-01 0.47402621E+03</pdfrwt>
<totfact> 0.55481030E+04</totfact>
</mgrwt>
</event>
<event>
 7    0  0.4709932E-002  0.4551182E+03  0.7546771E-02  0.1026207E+00
         21   -1    0    0  502  501  0.00000000000E+00  0.00000000000E+00  0.64133923607E+02  0.64133923607E+02  0.00000000000E+00 0.  1.
         21   -1    0    0  501  502 -0.00000000000E+00 -0.00000000000E+00 -0.80742207216E+03  0.80742207216E+03  0.00000000000E+00 0.  1.
      99926    2    1    2    0    0  0.14210854715E-13  0.35527136788E-14 -0.74328814856E+03  0.87155599577E+03  0.45511820660E+03 0.  0.
      99925    2    3    3    0    0 -0.10065273551E+03 -0.31552166686E+02 -0.38853141514E+03  0.48088175757E+03  0.26299066871E+03 0.  0.
         25    1    4    4    0    0 -0.49984206819E+02 -0.28249145743E+02 -0.26149958683E+03  0.29550969050E+03  0.12509000000E+03 0.  0.
         25    1    3    3    0    0  0.10065273551E+03  0.31552166686E+02 -0.35475673342E+03  0.39067423820E+03  0.12509000000E+03 0.  0.
         25    1    4    4    0    0 -0.50668528691E+02 -0.33030209432E+01 -0.12703182831E+03  0.18537206707E+03  0.12509000000E+03 0.  0.
<mgrwt>
<rscale>  2 0.45511821E+03</rscale>
<asrwt>0</asrwt>
<pdfrwt beam="1">  1       21 0.94314595E-02 0.45511821E+03</pdfrwt>
<pdfrwt beam="2">  1       21 0.11873854E+00 0.45511821E+03</pdfrwt>
<totfact> 0.44445211E+04</totfact>
</mgrwt>
</event>
<event>
 7    0  0.4709932E-002  0.4530693E+03  0.7546771E-02  0.1026811E+00
         21   -1    0    0  502  501  0.00000000000E+00  0.00000000000E+00  0.42742202994E+02  0.42742202994E+02  0.00000000000E+00 0.  1.
         21   -1    0    0  501  502 -0.00000000000E+00 -0.00000000000E+00 -0.12006388095E+04  0.12006388095E+04  0.00000000000E+00 0.  1.
      99926    2    1    2    0    0  0.71054273576E-14  0.00000000000E+00 -0.11578966065E+04  0.12433810125E+04  0.45306930030E+03 0.  0.
      99925    2    3    3    0    0  0.63830817238E+02 -0.47717674133E+02 -0.51670650682E+03  0.58525974578E+03  0.26304373438E+03 0.  0.
         25    1    3    3    0    0 -0.63830817238E+02  0.47717674133E+02 -0.64119009970E+03  0.65812126672E+03  0.12509000000E+03 0.  0.
         25    1    4    4    0    0  0.50487359652E+02  0.95457403641E+01 -0.22605979950E+03  0.26342102364E+03  0.12509000000E+03 0.  0.
         25    1    4    4    0    0  0.13343457585E+02 -0.57263414497E+02 -0.29064670731E+03  0.32183872214E+03  0.12509000000E+03 0.  0.
<mgrwt>
<rscale>  2 0.45306930E+03</rscale>
<asrwt>0</asrwt>
<pdfrwt beam="1">  1       21 0.62856185E-02 0.45306930E+03</pdfrwt>
<pdfrwt beam="2">  1       21 0.17656452E+00 0.45306930E+03</pdfrwt>
<totfact> 0.31271757E+04</totfact>
</mgrwt>
</event>
<event>
 7    0  0.4709932E-002  0.4543677E+03  0.7546771E-02  0.1026427E+00
         21   -1    0    0  502  501  0.00000000000E+00  0.00000000000E+00  0.86773177671E+02  0.86773177671E+02  0.00000000000E+00 0.  1.
         21   -1    0    0  501  502 -0.00000000000E+00 -0.00000000000E+00 -0.59479797489E+03  0.59479797489E+03  0.00000000000E+00 0.  1.
      99926    2    1    2    0    0  0.00000000000E+00  0.00000000000E+00 -0.50802479722E+03  0.68157115256E+03  0.45436773809E+03 0.  0.
      99925    2    3    3    0    0 -0.10459836273E+03  0.35011037259E+02 -0.35385989275E+03  0.45445682874E+03  0.26295930346E+03 0.  0.
         25    1    4    4    0    0 -0.89787017975E+02  0.11784875140E+01 -0.17514016654E+03  0.23320523893E+03  0.12509000000E+03 0.  0.
         25    1    3    3    0    0  0.10459836273E+03 -0.35011037259E+02 -0.15416490447E+03  0.22711432382E+03  0.12509000000E+03 0.  0.
         25    1    4    4    0    0 -0.14811344755E+02  0.33832549745E+02 -0.17871972622E+03  0.22125158981E+03  0.12509000000E+03 0.  0.
<mgrwt>
<rscale>  2 0.45436774E+03</rscale>
<asrwt>0</asrwt>
<pdfrwt beam="1">  1       21 0.12760762E-01 0.45436774E+03</pdfrwt>
<pdfrwt beam="2">  1       21 0.87470289E-01 0.45436774E+03</pdfrwt>
<totfact> 0.54184591E+04</totfact>
</mgrwt>
</event>
<event>
 7    0  0.4709932E-002  0.4611447E+03  0.7546771E-02  0.1024450E+00
         21   -1    0    0  502  501  0.00000000000E+00  0.00000000000E+00  0.10912879529E+04  0.10912879529E+04  0.00000000000E+00 0.  1.
         21   -1    0    0  501  502 -0.00000000000E+00 -0.00000000000E+00 -0.48716398854E+02  0.48716398854E+02  0.00000000000E+00 0.  1.
      99926    2    1    2    0    0  0.00000000000E+00  0.71054273576E-14  0.10425715541E+04  0.11400043518E+04  0.46114474595E+03 0.  0.
      99925    2    3    3    0    0  0.21950092406E+02 -0.62907677214E+02  0.89569953729E+03  0.93590124102E+03  0.26304807437E+03 0.  0.
         25    1    3    3    0    0 -0.21950092406E+02  0.62907677214E+02  0.14687201679E+03  0.20410311076E+03  0.12509000000E+03 0.  0.
         25    1    4    4    0    0 -0.20292176985E+02 -0.34430783355E+02  0.53091720025E+03  0.54691665994E+03  0.12509000000E+03 0.  0.
         25    1    4    4    0    0  0.42242269390E+02 -0.28476893859E+02  0.36478233703E+03  0.38898458108E+03  0.12509000000E+03 0.  0.
<mgrwt>
<rscale>  2 0.46114475E+03</rscale>
<asrwt>0</asrwt>
<pdfrwt beam="1">  1       21 0.16048351E+00 0.46114475E+03</pdfrwt>
<pdfrwt beam="2">  1       21 0.71641770E-02 0.46114475E+03</pdfrwt>
<totfact> 0.32531603E+04</totfact>
</mgrwt>
</event>
<event>
 7    0  0.4709932E-002  0.4526605E+03  0.7546771E-02  0.1026932E+00
         21   -1    0    0  502  501  0.00000000000E+00  0.00000000000E+00  0.75769100670E+03  0.75769100670E+03  0.00000000000E+00 0.  1.
         21   -1    0    0  501  502 -0.00000000000E+00 -0.00000000000E+00 -0.67607234171E+02  0.67607234171E+02  0.00000000000E+00 0.  1.
      99926    2    1    2    0    0 -0.17763568394E-14  0.00000000000E+00  0.69008377253E+03  0.82529824087E+03  0.45266054972E+03 0.  0.
      99925    2    3    3    0    0 -0.73805161201E+01 -0.22652223532E+02  0.23804922276E+03  0.35567036953E+03  0.26318507568E+03 0.  0.
         25    1    4    4    0    0  0.29712253349E+02 -0.32744760838E+02  0.13298515502E+03  0.18784993191E+03  0.12509000000E+03 0.  0.
         25    1    4    4    0    0 -0.37092769469E+02  0.10092537306E+02  0.10506406774E+03  0.16782043763E+03  0.12509000000E+03 0.  0.
         25    1    3    3    0    0  0.73805161201E+01  0.22652223532E+02  0.45203454977E+03  0.46962787134E+03  0.12509000000E+03 0.  0.
<mgrwt>
<rscale>  2 0.45266055E+03</rscale>
<asrwt>0</asrwt>
<pdfrwt beam="1">  1       21 0.11142514E+00 0.45266055E+03</pdfrwt>
<pdfrwt beam="2">  1       21 0.99422407E-02 0.45266055E+03</pdfrwt>
<totfact> 0.47430047E+04</totfact>
</mgrwt>
</event>
<event>
 7    0  0.4709932E-002  0.4448737E+03  0.7546771E-02  0.1029262E+00
         21   -1    0    0  502  501  0.00000000000E+00  0.00000000000E+00  0.11656917691E+03  0.11656917691E+03  0.00000000000E+00 0. -1.
         21   -1    0    0  501  502 -0.00000000000E+00 -0.00000000000E+00 -0.42445319862E+03  0.42445319862E+03  0.00000000000E+00 0. -1.
      99926    2    1    2    0    0  0.00000000000E+00  0.00000000000E+00 -0.30788402172E+03  0.54102237553E+03  0.44487373489E+03 0.  0.
      99925    2    3    3    0    0  0.46966817547E+02 -0.37813940987E+02 -0.94025349671E+02  0.28603450171E+03  0.26332336339E+03 0.  0.
         25    1    4    4    0    0  0.93479574595E+01  0.27762754371E+01 -0.79370172758E+02  0.14846624006E+03  0.12509000000E+03 0.  0.
         25    1    4    4    0    0  0.37618860087E+02 -0.40590216424E+02 -0.14655176913E+02  0.13756826165E+03  0.12509000000E+03 0.  0.
         25    1    3    3    0    0 -0.46966817547E+02  0.37813940987E+02 -0.21385867205E+03  0.25498787381E+03  0.12509000000E+03 0.  0.
<mgrwt>
<rscale>  2 0.44487373E+03</rscale>
<asrwt>0</asrwt>
<pdfrwt beam="1">  1       21 0.17142526E-01 0.44487373E+03</pdfrwt>
<pdfrwt beam="2">  1       21 0.62419588E-01 0.44487373E+03</pdfrwt>
<totfact> 0.67730265E+04</totfact>
</mgrwt>
</event>
<event>
 6    0  0.4709932E-002  0.4544801E+03  0.7546771E-02  0.1026394E+00
         21   -1    0    0  502  501  0.00000000000E+00  0.00000000000E+00  0.14929568056E+03  0.14929568056E+03  0.00000000000E+00 0.  1.
         21   -1    0    0  501  502 -0.00000000000E+00 -0.00000000000E+00 -0.34587771150E+03  0.34587771150E+03  0.00000000000E+00 0.  1.
      99926    2    1    2    0    0  0.00000000000E+00  0.00000000000E+00 -0.19658203094E+03  0.49517339206E+03  0.45448013522E+03 0.  0.
         25    1    3    3    0    0  0.10763487853E+02  0.34887578401E+01 -0.41874429955E+02  0.13239713020E+03  0.12509000000E+03 0.  0.
         25    1    3    3    0    0  0.75755271573E+02  0.64190803721E+02 -0.95519946054E+02  0.18609376305E+03  0.12509000000E+03 0.  0.
         25    1    3    3    0    0 -0.86518759427E+02 -0.67679561561E+02 -0.59187654926E+02  0.17668249880E+03  0.12509000000E+03 0.  0.
<mgrwt>
<rscale>  2 0.45448014E+03</rscale>
<asrwt>0</asrwt>
<pdfrwt beam="1">  1       21 0.21955247E-01 0.45448014E+03</pdfrwt>
<pdfrwt beam="2">  1       21 0.50864369E-01 0.45448014E+03</pdfrwt>
<totfact> 0.65882562E+04</totfact>
</mgrwt>
</event>
<event>
 7    0  0.4709932E-002  0.4496188E+03  0.7546771E-02  0.1027836E+00
         21   -1    0    0  502  501  0.00000000000E+00  0.00000000000E+00  0.42682499833E+03  0.42682499833E+03  0.00000000000E+00 0. -1.
         21   -1    0    0  501  502 -0.00000000000E+00 -0.00000000000E+00 -0.11840744225E+03  0.11840744225E+03  0.00000000000E+00 0. -1.
      99926    2    1    2    0    0  0.00000000000E+00 -0.17763568394E-14  0.30841755608E+03  0.54523244058E+03  0.44961875557E+03 0.  0.
      99925    2    3    3    0    0  0.10153878644E+03  0.94456022396E+01  0.15195023858E+03  0.32044615519E+03  0.26305421270E+03 0.  0.
         25    1    3    3    0    0 -0.10153878644E+03 -0.94456022396E+01  0.15646731750E+03  0.22478628539E+03  0.12509000000E+03 0.  0.
         25    1    4    4    0    0  0.44391963370E+02  0.36035828459E+02  0.46744021880E+02  0.14526437631E+03  0.12509000000E+03 0.  0.
         25    1    4    4    0    0  0.57146823073E+02 -0.26590226220E+02  0.10520621670E+03  0.17518177887E+03  0.12509000000E+03 0.  0.
<mgrwt>
<rscale>  2 0.44961876E+03</rscale>
<asrwt>0</asrwt>
<pdfrwt beam="1">  1       21 0.62768382E-01 0.44961876E+03</pdfrwt>
<pdfrwt beam="2">  1       21 0.17412859E-01 0.44961876E+03</pdfrwt>
<totfact> 0.64902412E+04</totfact>
</mgrwt>
</event>
<event>
 7    0  0.4709932E-002  0.4556175E+03  0.7546771E-02  0.1026060E+00
         21   -1    0    0  502  501  0.00000000000E+00  0.00000000000E+00  0.32802592434E+03  0.32802592434E+03  0.00000000000E+00 0. -1.
         21   -1    0    0  501  502 -0.00000000000E+00 -0.00000000000E+00 -0.15820951692E+03  0.15820951692E+03  0.00000000000E+00 0. -1.
      99926    2    1    2    0    0  0.00000000000E+00  0.00000000000E+00  0.16981640742E+03  0.48623544126E+03  0.45561748442E+03 0.  0.
      99925    2    3    3    0    0  0.13271763391E+02 -0.83918032234E+02  0.18752455066E+03  0.33398741245E+03  0.26299003544E+03 0.  0.
         25    1    3    3    0    0 -0.13271763391E+02  0.83918032234E+02 -0.17708143240E+02  0.15224802880E+03  0.12509000000E+03 0.  0.
         25    1    4    4    0    0  0.29939764373E+01  0.45677521010E+00  0.86373284685E+02  0.15204283918E+03  0.12509000000E+03 0.  0.
         25    1    4    4    0    0  0.10277786954E+02 -0.84374807444E+02  0.10115126597E+03  0.18194457327E+03  0.12509000000E+03 0.  0.
<mgrwt>
<rscale>  2 0.45561748E+03</rscale>
<asrwt>0</asrwt>
<pdfrwt beam="1">  1       21 0.48239107E-01 0.45561748E+03</pdfrwt>
<pdfrwt beam="2">  1       21 0.23266105E-01 0.45561748E+03</pdfrwt>
<totfact> 0.65925184E+04</totfact>
</mgrwt>
</event>
<event>
 7    0  0.4709932E-002  0.4530801E+03  0.7546771E-02  0.1026807E+00
         21   -1    0    0  502  501  0.00000000000E+00  0.00000000000E+00  0.14228107200E+03  0.14228107200E+03  0.00000000000E+00 0. -1.
         21   -1    0    0  501  502 -0.00000000000E+00 -0.00000000000E+00 -0.36069729133E+03  0.36069729133E+03  0.00000000000E+00 0. -1.
      99926    2    1    2    0    0  0.00000000000E+00 -0.14210854715E-13 -0.21841621933E+03  0.50297836333E+03  0.45308011335E+03 0.  0.
      99925    2    3    3    0    0 -0.43740470059E+01 -0.11121555746E+03 -0.14200841917E+03  0.31893029207E+03  0.26298689621E+03 0.  0.
         25    1    4    4    0    0 -0.92431359623E+01 -0.79823198384E+02 -0.38743440436E+02  0.15364159866E+03  0.12509000000E+03 0.  0.
         25    1    3    3    0    0  0.43740470059E+01  0.11121555746E+03 -0.76407800160E+02  0.18404807126E+03  0.12509000000E+03 0.  0.
         25    1    4    4    0    0  0.48690889564E+01 -0.31392359079E+02 -0.10326497873E+03  0.16528869341E+03  0.12509000000E+03 0.  0.
<mgrwt>
<rscale>  2 0.45308011E+03</rscale>
<asrwt>0</asrwt>
<pdfrwt beam="1">  1       21 0.20923687E-01 0.45308011E+03</pdfrwt>
<pdfrwt beam="2">  1       21 0.53043720E-01 0.45308011E+03</pdfrwt>
<totfact> 0.66062933E+04</totfact>
</mgrwt>
</event>
<event>
 7    0  0.4709932E-002  0.3980502E+03  0.7546771E-02  0.1044457E+00
         21   -1    0    0  502  501  0.00000000000E+00  0.00000000000E+00  0.49249475184E+03  0.49249475184E+03  0.00000000000E+00 0.  1.
         21   -1    0    0  501  502 -0.00000000000E+00 -0.00000000000E+00 -0.80429281212E+02  0.80429281212E+02  0.00000000000E+00 0.  1.
      99926    2    1    2    0    0 -0.71054273576E-14  0.00000000000E+00  0.41206547063E+03  0.57292403305E+03  0.39805024251E+03 0.  0.
      99925    2    3    3    0    0 -0.35633628426E+02  0.13631494552E+02  0.29983902193E+03  0.40059337123E+03  0.26289929037E+03 0.  0.
         25    1    3    3    0    0  0.35633628426E+02 -0.13631494552E+02  0.11222644870E+03  0.17233066183E+03  0.12509000000E+03 0.  0.
         25    1    4    4    0    0 -0.10191161929E+02  0.10937044789E+02  0.89501039346E+02  0.15453615394E+03  0.12509000000E+03 0.  0.
         25    1    4    4    0    0 -0.25442466497E+02  0.26944497627E+01  0.21033798259E+03  0.24605721729E+03  0.12509000000E+03 0.  0.
<mgrwt>
<rscale>  2 0.39805024E+03</rscale>
<asrwt>0</asrwt>
<pdfrwt beam="1">  1       21 0.72425698E-01 0.39805024E+03</pdfrwt>
<pdfrwt beam="2">  1       21 0.11827836E-01 0.39805024E+03</pdfrwt>
<totfact> 0.97337428E+04</totfact>
</mgrwt>
</event>
<event>
 7    0  0.4709932E-002  0.4526318E+03  0.7546771E-02  0.1026940E+00
         21   -1    0    0  502  501  0.00000000000E+00  0.00000000000E+00  0.49488747262E+03  0.49488747262E+03  0.00000000000E+00 0.  1.
         21   -1    0    0  501  502 -0.00000000000E+00 -0.00000000000E+00 -0.10349604268E+03  0.10349604268E+03  0.00000000000E+00 0.  1.
      99926    2    1    2    0    0  0.00000000000E+00  0.00000000000E+00  0.39139142994E+03  0.59838351530E+03  0.45263183710E+03 0.  0.
      99925    2    3    3    0    0  0.10589902631E+03  0.30218141273E+02  0.26448687914E+03  0.38890794883E+03  0.26299875207E+03 0.  0.
         25    1    4    4    0    0  0.59526172545E+02 -0.56157965153E+01  0.85778898411E+02  0.16303505728E+03  0.12509000000E+03 0.  0.
         25    1    4    4    0    0  0.46372853761E+02  0.35833937789E+02  0.17870798072E+03  0.22587289155E+03  0.12509000000E+03 0.  0.
         25    1    3    3    0    0 -0.10589902631E+03 -0.30218141273E+02  0.12690455081E+03  0.20947556647E+03  0.12509000000E+03 0.  0.
<mgrwt>
<rscale>  2 0.45263184E+03</rscale>
<asrwt>0</asrwt>
<pdfrwt beam="1">  1       21 0.72777568E-01 0.45263184E+03</pdfrwt>
<pdfrwt beam="2">  1       21 0.15220006E-01 0.45263184E+03</pdfrwt>
<totfact> 0.59890717E+04</totfact>
</mgrwt>
</event>
<event>
 7    0  0.4709932E-002  0.4958834E+03  0.7546771E-02  0.1014859E+00
         21   -1    0    0  502  501  0.00000000000E+00  0.00000000000E+00  0.16193898080E+03  0.16193898080E+03  0.00000000000E+00 0.  1.
         21   -1    0    0  501  502 -0.00000000000E+00 -0.00000000000E+00 -0.37961886810E+03  0.37961886810E+03  0.00000000000E+00 0.  1.
      99926    2    1    2    0    0  0.00000000000E+00  0.00000000000E+00 -0.21767988729E+03  0.54155784890E+03  0.49588342418E+03 0.  0.
      99925    2    3    3    0    0  0.68682114090E+02 -0.26684192295E+02  0.79391961861E+01  0.27326554964E+03  0.26302424008E+03 0.  0.
         25    1    3    3    0    0 -0.68682114090E+02  0.26684192295E+02 -0.22561908348E+03  0.26829229926E+03  0.12509000000E+03 0.  0.
         25    1    4    4    0    0  0.57093745385E+01 -0.19569030696E+02  0.32648880983E+02  0.13087781114E+03  0.12509000000E+03 0.  0.
         25    1    4    4    0    0  0.62972739552E+02 -0.71151615989E+01 -0.24709684797E+02  0.14238773850E+03  0.12509000000E+03 0.  0.
<mgrwt>
<rscale>  2 0.49588342E+03</rscale>
<asrwt>0</asrwt>
<pdfrwt beam="1">  1       21 0.23814556E-01 0.49588342E+03</pdfrwt>
<pdfrwt beam="2">  1       21 0.55826303E-01 0.49588342E+03</pdfrwt>
<totfact> 0.45713660E+04</totfact>
</mgrwt>
</event>
<event>
 7    0  0.4709932E-002  0.4586565E+03  0.7546771E-02  0.1025172E+00
         21   -1    0    0  502  501  0.00000000000E+00  0.00000000000E+00  0.11264194082E+03  0.11264194082E+03  0.00000000000E+00 0.  1.
         21   -1    0    0  501  502 -0.00000000000E+00 -0.00000000000E+00 -0.46689042786E+03  0.46689042786E+03  0.00000000000E+00 0.  1.
      99926    2    1    2    0    0  0.00000000000E+00 -0.14210854715E-13 -0.35424848704E+03  0.57953236868E+03  0.45865648995E+03 0.  0.
      99925    2    3    3    0    0  0.18744183157E+02 -0.67443276964E+02 -0.10438268437E+03  0.29146923766E+03  0.26298028765E+03 0.  0.
         25    1    4    4    0    0  0.30632424907E+01 -0.74103855049E+02 -0.64382869279E+02  0.15903907301E+03  0.12509000000E+03 0.  0.
         25    1    4    4    0    0  0.15680940667E+02  0.66605780848E+01 -0.39999815089E+02  0.13243016464E+03  0.12509000000E+03 0.  0.
         25    1    3    3    0    0 -0.18744183157E+02  0.67443276964E+02 -0.24986580268E+03  0.28806313103E+03  0.12509000000E+03 0.  0.
<mgrwt>
<rscale>  2 0.45865649E+03</rscale>
<asrwt>0</asrwt>
<pdfrwt beam="1">  1       21 0.16564991E-01 0.45865649E+03</pdfrwt>
<pdfrwt beam="2">  1       21 0.68660359E-01 0.45865649E+03</pdfrwt>
<totfact> 0.58253782E+04</totfact>
</mgrwt>
</event>
<event>
 7    0  0.4709932E-002  0.4552569E+03  0.7546771E-02  0.1026166E+00
         21   -1    0    0  502  501  0.00000000000E+00  0.00000000000E+00  0.50911727662E+02  0.50911727662E+02  0.00000000000E+00 0. -1.
         21   -1    0    0  501  502 -0.00000000000E+00 -0.00000000000E+00 -0.10177362369E+04  0.10177362369E+04  0.00000000000E+00 0. -1.
      99926    2    1    2    0    0  0.00000000000E+00  0.00000000000E+00 -0.96682450920E+03  0.10686479645E+04  0.45525689505E+03 0.  0.
      99925    2    3    3    0    0  0.96609964337E+02 -0.68633057968E+01 -0.46901061131E+03  0.54630059428E+03  0.26285508480E+03 0.  0.
         25    1    4    4    0    0  0.49389408890E+02 -0.90964529578E+01 -0.31319181875E+03  0.34096727497E+03  0.12509000000E+03 0.  0.
         25    1    4    4    0    0  0.47220555446E+02  0.22331471610E+01 -0.15581879256E+03  0.20533331931E+03  0.12509000000E+03 0.  0.
         25    1    3    3    0    0 -0.96609964337E+02  0.68633057968E+01 -0.49781389789E+03  0.52234737025E+03  0.12509000000E+03 0.  0.
<mgrwt>
<rscale>  2 0.45525690E+03</rscale>
<asrwt>0</asrwt>
<pdfrwt beam="1">  1       21 0.74870196E-02 0.45525690E+03</pdfrwt>
<pdfrwt beam="2">  1       21 0.14966708E+00 0.45525690E+03</pdfrwt>
<totfact> 0.36527220E+04</totfact>
</mgrwt>
</event>
<event>
 7    0  0.4709932E-002  0.4575422E+03  0.7546771E-02  0.1025496E+00
         21   -1    0    0  502  501  0.00000000000E+00  0.00000000000E+00  0.78004339611E+02  0.78004339611E+02  0.00000000000E+00 0. -1.
         21   -1    0    0  501  502 -0.00000000000E+00 -0.00000000000E+00 -0.67093975311E+03  0.67093975311E+03  0.00000000000E+00 0. -1.
      99926    2    1    2    0    0  0.71054273576E-14  0.14210854715E-13 -0.59293541350E+03  0.74894409272E+03  0.45754218324E+03 0.  0.
      99925    2    3    3    0    0  0.59711112672E+02  0.83284077820E+02 -0.45931461955E+03  0.53917355316E+03  0.26312838329E+03 0.  0.
         25    1    4    4    0    0  0.38348584459E+02  0.53228023282E+02 -0.31165306093E+03  0.34216805064E+03  0.12509000000E+03 0.  0.
         25    1    4    4    0    0  0.21362528213E+02  0.30056054538E+02 -0.14766155862E+03  0.19700550251E+03  0.12509000000E+03 0.  0.
         25    1    3    3    0    0 -0.59711112672E+02 -0.83284077820E+02 -0.13362079395E+03  0.20977053957E+03  0.12509000000E+03 0.  0.
<mgrwt>
<rscale>  2 0.45754218E+03</rscale>
<asrwt>0</asrwt>
<pdfrwt beam="1">  1       21 0.11471226E-01 0.45754218E+03</pdfrwt>
<pdfrwt beam="2">  1       21 0.98667610E-01 0.45754218E+03</pdfrwt>
<totfact> 0.49331753E+04</totfact>
</mgrwt>
</event>
<event>
 7    0  0.4709932E-002  0.4462326E+03  0.7546771E-02  0.1028852E+00
         21   -1    0    0  502  501  0.00000000000E+00  0.00000000000E+00  0.75140309527E+03  0.75140309527E+03  0.00000000000E+00 0. -1.
         21   -1    0    0  501  502 -0.00000000000E+00 -0.00000000000E+00 -0.66250568727E+02  0.66250568727E+02  0.00000000000E+00 0. -1.
      99926    2    1    2    0    0  0.00000000000E+00  0.00000000000E+00  0.68515252654E+03  0.81765366400E+03  0.44623259587E+03 0.  0.
      99925    2    3    3    0    0  0.87576183991E+02  0.59282086126E+02  0.43888289121E+03  0.52188315309E+03  0.26183941556E+03 0.  0.
         25    1    3    3    0    0 -0.87576183991E+02 -0.59282086126E+02  0.24626963533E+03  0.29577051091E+03  0.12509000000E+03 0.  0.
         25    1    4    4    0    0  0.46796357757E+02  0.28417780426E+02  0.14933760786E+03  0.20235290599E+03  0.12509000000E+03 0.  0.
         25    1    4    4    0    0  0.40779826234E+02  0.30864305700E+02  0.28954528336E+03  0.31953024709E+03  0.12509000000E+03 0.  0.
<mgrwt>
<rscale>  2 0.44623260E+03</rscale>
<asrwt>0</asrwt>
<pdfrwt beam="1">  1       21 0.11050045E+00 0.44623260E+03</pdfrwt>
<pdfrwt beam="2">  1       21 0.97427311E-02 0.44623260E+03</pdfrwt>
<totfact> 0.50294578E+04</totfact>
</mgrwt>
</event>
<event>
 7    0  0.4709932E-002  0.4529304E+03  0.7546771E-02  0.1026852E+00
         21   -1    0    0  502  501  0.00000000000E+00  0.00000000000E+00  0.68371658062E+03  0.68371658062E+03  0.00000000000E+00 0. -1.
         21   -1    0    0  501  502 -0.00000000000E+00 -0.00000000000E+00 -0.75011324220E+02  0.75011324220E+02  0.00000000000E+00 0. -1.
      99926    2    1    2    0    0  0.71054273576E-14  0.14210854715E-13  0.60870525640E+03  0.75872790484E+03  0.45293039688E+03 0.  0.
      99925    2    3    3    0    0  0.51836268362E+02  0.88567566016E+02  0.31193119098E+03  0.42071375355E+03  0.26299768450E+03 0.  0.
         25    1    4    4    0    0  0.59431799200E+02  0.65877163565E+02  0.14803923490E+03  0.21315502013E+03  0.12509000000E+03 0.  0.
         25    1    4    4    0    0 -0.75955308376E+01  0.22690402452E+02  0.16389195608E+03  0.20755873342E+03  0.12509000000E+03 0.  0.
         25    1    3    3    0    0 -0.51836268362E+02 -0.88567566016E+02  0.29677406541E+03  0.33801415129E+03  0.12509000000E+03 0.  0.
<mgrwt>
<rscale>  2 0.45293040E+03</rscale>
<asrwt>0</asrwt>
<pdfrwt beam="1">  1       21 0.10054655E+00 0.45293040E+03</pdfrwt>
<pdfrwt beam="2">  1       21 0.11031077E-01 0.45293040E+03</pdfrwt>
<totfact> 0.50643263E+04</totfact>
</mgrwt>
</event>
<event>
 7    0  0.4709932E-002  0.4624591E+03  0.7546771E-02  0.1024070E+00
         21   -1    0    0  502  501  0.00000000000E+00  0.00000000000E+00  0.53502642909E+02  0.53502642909E+02  0.00000000000E+00 0.  1.
         21   -1    0    0  501  502 -0.00000000000E+00 -0.00000000000E+00 -0.99933571122E+03  0.99933571122E+03  0.00000000000E+00 0.  1.
      99926    2    1    2    0    0  0.71054273576E-14 -0.14210854715E-13 -0.94583306831E+03  0.10528383541E+04  0.46245908664E+03 0.  0.
      99925    2    3    3    0    0 -0.46412211376E+02 -0.10014813680E+03 -0.48356204841E+03  0.56138566402E+03  0.26294080406E+03 0.  0.
         25    1    4    4    0    0  0.11215097163E+01 -0.82493429948E+02 -0.26818912025E+03  0.30721220043E+03  0.12509000000E+03 0.  0.
         25    1    3    3    0    0  0.46412211376E+02  0.10014813680E+03 -0.46227101991E+03  0.49145269011E+03  0.12509000000E+03 0.  0.
         25    1    4    4    0    0 -0.47533721092E+02 -0.17654706851E+02 -0.21537292815E+03  0.25417346360E+03  0.12509000000E+03 0.  0.
<mgrwt>
<rscale>  2 0.46245909E+03</rscale>
<asrwt>0</asrwt>
<pdfrwt beam="1">  1       21 0.78680361E-02 0.46245909E+03</pdfrwt>
<pdfrwt beam="2">  1       21 0.14696113E+00 0.46245909E+03</pdfrwt>
<totfact> 0.35085812E+04</totfact>
</mgrwt>
</event>
<event>
 7    0  0.4709932E-002  0.4205564E+03  0.7546771E-02  0.1036885E+00
         21   -1    0    0  502  501  0.00000000000E+00  0.00000000000E+00  0.10243553335E+03  0.10243553335E+03  0.00000000000E+00 0. -1.
         21   -1    0    0  501  502 -0.00000000000E+00 -0.00000000000E+00 -0.43165615237E+03  0.43165615237E+03  0.00000000000E+00 0. -1.
      99926    2    1    2    0    0  0.71054273576E-14  0.71054273576E-14 -0.32922061902E+03  0.53409168573E+03  0.42055643233E+03 0.  0.
      99925    2    3    3    0    0  0.29860210220E+02  0.47984298377E+02 -0.28001073834E+03  0.38827246373E+03  0.26297408136E+03 0.  0.
         25    1    4    4    0    0  0.18674776460E+01 -0.12665417962E+02 -0.11175099457E+03  0.16822512646E+03  0.12509000000E+03 0.  0.
         25    1    3    3    0    0 -0.29860210220E+02 -0.47984298377E+02 -0.49209880685E+02  0.14581922199E+03  0.12509000000E+03 0.  0.
         25    1    4    4    0    0  0.27992732574E+02  0.60649716339E+02 -0.16825974377E+03  0.22004733728E+03  0.12509000000E+03 0.  0.
<mgrwt>
<rscale>  2 0.42055643E+03</rscale>
<asrwt>0</asrwt>
<pdfrwt beam="1">  1       21 0.15064049E-01 0.42055643E+03</pdfrwt>
<pdfrwt beam="2">  1       21 0.63478846E-01 0.42055643E+03</pdfrwt>
<totfact> 0.83460834E+04</totfact>
</mgrwt>
</event>
<event>
 7    0  0.4709932E-002  0.4441838E+03  0.7546771E-02  0.1029471E+00
         21   -1    0    0  502  501  0.00000000000E+00  0.00000000000E+00  0.22745337741E+03  0.22745337741E+03  0.00000000000E+00 0. -1.
         21   -1    0    0  501  502 -0.00000000000E+00 -0.00000000000E+00 -0.21685682598E+03  0.21685682598E+03  0.00000000000E+00 0. -1.
      99926    2    1    2    0    0 -0.14210854715E-13  0.71054273576E-14  0.10596551421E+02  0.44431020339E+03  0.44418382449E+03 0.  0.
      99925    2    3    3    0    0 -0.73905969751E+02 -0.57956275044E+02 -0.34883482056E+02  0.28140850381E+03  0.26296932618E+03 0.  0.
         25    1    4    4    0    0 -0.55799700749E+01 -0.13035459623E+02 -0.39347104684E+02  0.13189678548E+03  0.12509000000E+03 0.  0.
         25    1    4    4    0    0 -0.68325999676E+02 -0.44920815421E+02  0.44636226279E+01  0.14951171833E+03  0.12509000000E+03 0.  0.
         25    1    3    3    0    0  0.73905969751E+02  0.57956275044E+02  0.45480033477E+02  0.16290169958E+03  0.12509000000E+03 0.  0.
<mgrwt>
<rscale>  2 0.44418382E+03</rscale>
<asrwt>0</asrwt>
<pdfrwt beam="1">  1       21 0.33449026E-01 0.44418382E+03</pdfrwt>
<pdfrwt beam="2">  1       21 0.31890709E-01 0.44418382E+03</pdfrwt>
<totfact> 0.75657706E+04</totfact>
</mgrwt>
</event>
<event>
 7    0  0.4709932E-002  0.4652525E+03  0.7546771E-02  0.1023269E+00
         21   -1    0    0  502  501  0.00000000000E+00  0.00000000000E+00  0.61396035382E+03  0.61396035382E+03  0.00000000000E+00 0. -1.
         21   -1    0    0  501  502 -0.00000000000E+00 -0.00000000000E+00 -0.88140809664E+02  0.88140809664E+02  0.00000000000E+00 0. -1.
      99926    2    1    2    0    0 -0.14210854715E-13 -0.71054273576E-14  0.52581954415E+03  0.70210116348E+03  0.46525245915E+03 0.  0.
      99925    2    3    3    0    0  0.10992693051E+03  0.44664927203E+02  0.28188138548E+03  0.40338353907E+03  0.26302524279E+03 0.  0.
         25    1    3    3    0    0 -0.10992693051E+03 -0.44664927203E+02  0.24393815867E+03  0.29871762440E+03  0.12509000000E+03 0.  0.
         25    1    4    4    0    0  0.66911393796E+02  0.37783219712E+02  0.97033194116E+02  0.17597629150E+03  0.12509000000E+03 0.  0.
         25    1    4    4    0    0  0.43015536716E+02  0.68817074909E+01  0.18484819136E+03  0.22740724757E+03  0.12509000000E+03 0.  0.
<mgrwt>
<rscale>  2 0.46525246E+03</rscale>
<asrwt>0</asrwt>
<pdfrwt beam="1">  1       21 0.90288285E-01 0.46525246E+03</pdfrwt>
<pdfrwt beam="2">  1       21 0.12961884E-01 0.46525246E+03</pdfrwt>
<totfact> 0.48735956E+04</totfact>
</mgrwt>
</event>
<event>
 7    0  0.4709932E-002  0.4552771E+03  0.7546771E-02  0.1026160E+00
         21   -1    0    0  502  501  0.00000000000E+00  0.00000000000E+00  0.85723583753E+02  0.85723583753E+02  0.00000000000E+00 0. -1.
         21   -1    0    0  501  502 -0.00000000000E+00 -0.00000000000E+00 -0.60449292661E+03  0.60449292661E+03  0.00000000000E+00 0. -1.
      99926    2    1    2    0    0  0.00000000000E+00  0.00000000000E+00 -0.51876934286E+03  0.69021651036E+03  0.45527705860E+03 0.  0.
      99925    2    3    3    0    0  0.10642834879E+03 -0.18542712896E+02 -0.37607921369E+03  0.47186173783E+03  0.26371783979E+03 0.  0.
         25    1    4    4    0    0  0.14105343211E+02  0.18377462521E+01 -0.13813362625E+03  0.18689768543E+03  0.12509000000E+03 0.  0.
         25    1    4    4    0    0  0.92323005581E+02 -0.20380459148E+02 -0.23794558745E+03  0.28496405240E+03  0.12509000000E+03 0.  0.
         25    1    3    3    0    0 -0.10642834879E+03  0.18542712896E+02 -0.14269012916E+03  0.21835477253E+03  0.12509000000E+03 0.  0.
<mgrwt>
<rscale>  2 0.45527706E+03</rscale>
<asrwt>0</asrwt>
<pdfrwt beam="1">  1       21 0.12606409E-01 0.45527706E+03</pdfrwt>
<pdfrwt beam="2">  1       21 0.88896019E-01 0.45527706E+03</pdfrwt>
<totfact> 0.53321075E+04</totfact>
</mgrwt>
</event>
<event>
 7    0  0.4709932E-002  0.4551174E+03  0.7546771E-02  0.1026207E+00
         21   -1    0    0  502  501  0.00000000000E+00  0.00000000000E+00  0.98793622702E+03  0.98793622702E+03  0.00000000000E+00 0. -1.
         21   -1    0    0  501  502 -0.00000000000E+00 -0.00000000000E+00 -0.52415298476E+02  0.52415298476E+02  0.00000000000E+00 0. -1.
      99926    2    1    2    0    0  0.00000000000E+00  0.44408920985E-15  0.93552092855E+03  0.10403515255E+04  0.45511744513E+03 0.  0.
      99925    2    3    3    0    0  0.93201026736E+02 -0.14915116025E+01  0.44241081256E+03  0.52315354543E+03  0.26319887736E+03 0.  0.
         25    1    3    3    0    0 -0.93201026736E+02  0.14915116025E+01  0.49311011599E+03  0.51719798006E+03  0.12509000000E+03 0.  0.
         25    1    4    4    0    0  0.89119215940E+02  0.55877532150E+01  0.23457234382E+03  0.28043742657E+03  0.12509000000E+03 0.  0.
         25    1    4    4    0    0  0.40818107967E+01 -0.70792648175E+01  0.20783846874E+03  0.24271611887E+03  0.12509000000E+03 0.  0.
<mgrwt>
<rscale>  2 0.45511745E+03</rscale>
<asrwt>0</asrwt>
<pdfrwt beam="1">  1       21 0.14528473E+00 0.45511745E+03</pdfrwt>
<pdfrwt beam="2">  1       21 0.77081328E-02 0.45511745E+03</pdfrwt>
<totfact> 0.37598948E+04</totfact>
</mgrwt>
</event>
<event>
 7    0  0.4709932E-002  0.4494654E+03  0.7546771E-02  0.1027882E+00
         21   -1    0    0  502  501  0.00000000000E+00  0.00000000000E+00  0.12909728722E+04  0.12909728722E+04  0.00000000000E+00 0.  1.
         21   -1    0    0  501  502 -0.00000000000E+00 -0.00000000000E+00 -0.39121490940E+02  0.39121490940E+02  0.00000000000E+00 0.  1.
      99926    2    1    2    0    0  0.00000000000E+00  0.00000000000E+00  0.12518513813E+04  0.13300943632E+04  0.44946538699E+03 0.  0.
      99925    2    3    3    0    0 -0.74327342661E+02 -0.54741112949E+02  0.62646065978E+03  0.68567042975E+03  0.26300159062E+03 0.  0.
         25    1    4    4    0    0 -0.15845136230E+02  0.74758361311E+01  0.31345914967E+03  0.33795133241E+03  0.12509000000E+03 0.  0.
         25    1    4    4    0    0 -0.58482206431E+02 -0.62216949080E+02  0.31300151012E+03  0.34771909734E+03  0.12509000000E+03 0.  0.
         25    1    3    3    0    0  0.74327342661E+02  0.54741112949E+02  0.62539072151E+03  0.64442393342E+03  0.12509000000E+03 0.  0.
<mgrwt>
<rscale>  2 0.44946539E+03</rscale>
<asrwt>0</asrwt>
<pdfrwt beam="1">  1       21 0.18984892E+00 0.44946539E+03</pdfrwt>
<pdfrwt beam="2">  1       21 0.57531613E-02 0.44946539E+03</pdfrwt>
<totfact> 0.29502453E+04</totfact>
</mgrwt>
</event>
<event>
 7    0  0.4709932E-002  0.4508570E+03  0.7546771E-02  0.1027467E+00
         21   -1    0    0  502  501  0.00000000000E+00  0.00000000000E+00  0.81065780933E+02  0.81065780933E+02  0.00000000000E+00 0. -1.
         21   -1    0    0  501  502 -0.00000000000E+00 -0.00000000000E+00 -0.62687368923E+03  0.62687368923E+03  0.00000000000E+00 0. -1.
      99926    2    1    2    0    0  0.00000000000E+00  0.00000000000E+00 -0.54580790830E+03  0.70793947016E+03  0.45085698470E+03 0.  0.
      99925    2    3    3    0    0 -0.76205725658E+02 -0.39897997136E+02 -0.23999241760E+03  0.36651629396E+03  0.26332236979E+03 0.  0.
         25    1    4    4    0    0 -0.29477850388E+02  0.45822873344E+01 -0.72091240737E+02  0.14742657872E+03  0.12509000000E+03 0.  0.
         25    1    4    4    0    0 -0.46727875269E+02 -0.44480284470E+02 -0.16790117686E+03  0.21908971524E+03  0.12509000000E+03 0.  0.
         25    1    3    3    0    0  0.76205725658E+02  0.39897997136E+02 -0.30581549070E+03  0.34142317621E+03  0.12509000000E+03 0.  0.
<mgrwt>
<rscale>  2 0.45085698E+03</rscale>
<asrwt>0</asrwt>
<pdfrwt beam="1">  1       21 0.11921438E-01 0.45085698E+03</pdfrwt>
<pdfrwt beam="2">  1       21 0.92187310E-01 0.45085698E+03</pdfrwt>
<totfact> 0.54219947E+04</totfact>
</mgrwt>
</event>
<event>
 7    0  0.4709932E-002  0.4526901E+03  0.7546771E-02  0.1026923E+00
         21   -1    0    0  502  501  0.00000000000E+00  0.00000000000E+00  0.15847599221E+03  0.15847599221E+03  0.00000000000E+00 0.  1.
         21   -1    0    0  501  502 -0.00000000000E+00 -0.00000000000E+00 -0.32327980478E+03  0.32327980478E+03  0.00000000000E+00 0.  1.
      99926    2    1    2    0    0  0.00000000000E+00  0.35527136788E-14 -0.16480381257E+03  0.48175579699E+03  0.45269012723E+03 0.  0.
      99925    2    3    3    0    0 -0.72970590123E+02 -0.24349617689E+02 -0.18895700310E+03  0.33293209049E+03  0.26309963313E+03 0.  0.
         25    1    4    4    0    0  0.14812344999E+01  0.65413125306E+01 -0.83756380491E+02  0.15069048476E+03  0.12509000000E+03 0.  0.
         25    1    4    4    0    0 -0.74451824623E+02 -0.30890930219E+02 -0.10520062261E+03  0.18224160573E+03  0.12509000000E+03 0.  0.
         25    1    3    3    0    0  0.72970590123E+02  0.24349617689E+02  0.24153190528E+02  0.14882370650E+03  0.12509000000E+03 0.  0.
<mgrwt>
<rscale>  2 0.45269013E+03</rscale>
<asrwt>0</asrwt>
<pdfrwt beam="1">  1       21 0.23305293E-01 0.45269013E+03</pdfrwt>
<pdfrwt beam="2">  1       21 0.47541147E-01 0.45269013E+03</pdfrwt>
<totfact> 0.67807323E+04</totfact>
</mgrwt>
</event>
<event>
 7    0  0.4709932E-002  0.4534608E+03  0.7546771E-02  0.1026695E+00
         21   -1    0    0  502  501  0.00000000000E+00  0.00000000000E+00  0.46227210271E+03  0.46227210271E+03  0.00000000000E+00 0.  1.
         21   -1    0    0  501  502 -0.00000000000E+00 -0.00000000000E+00 -0.11120437179E+03  0.11120437179E+03  0.00000000000E+00 0.  1.
      99926    2    1    2    0    0  0.00000000000E+00  0.00000000000E+00  0.35106773092E+03  0.57347647449E+03  0.45346081981E+03 0.  0.
      99925    2    3    3    0    0  0.72664842353E+02  0.29635454755E+02  0.12066154751E+03  0.29981069850E+03  0.26299963193E+03 0.  0.
         25    1    4    4    0    0  0.61859693019E+02 -0.15692722265E+02  0.52446336032E+02  0.14990333357E+03  0.12509000000E+03 0.  0.
         25    1    4    4    0    0  0.10805149334E+02  0.45328177020E+02  0.68215211479E+02  0.14990736493E+03  0.12509000000E+03 0.  0.
         25    1    3    3    0    0 -0.72664842353E+02 -0.29635454755E+02  0.23040618341E+03  0.27366577599E+03  0.12509000000E+03 0.  0.
<mgrwt>
<rscale>  2 0.45346082E+03</rscale>
<asrwt>0</asrwt>
<pdfrwt beam="1">  1       21 0.67981191E-01 0.45346082E+03</pdfrwt>
<pdfrwt beam="2">  1       21 0.16353584E-01 0.45346082E+03</pdfrwt>
<totfact> 0.61081299E+04</totfact>
</mgrwt>
</event>
<event>
 7    0  0.4709932E-002  0.4588439E+03  0.7546771E-02  0.1025117E+00
         21   -1    0    0  502  501  0.00000000000E+00  0.00000000000E+00  0.60774333116E+02  0.60774333116E+02  0.00000000000E+00 0.  1.
         21   -1    0    0  501  502 -0.00000000000E+00 -0.00000000000E+00 -0.86606347964E+03  0.86606347964E+03  0.00000000000E+00 0.  1.
      99926    2    1    2    0    0 -0.88817841970E-15  0.00000000000E+00 -0.80528914652E+03  0.92683781275E+03  0.45884389682E+03 0.  0.
      99925    2    3    3    0    0 -0.57385650511E+01 -0.99932278154E+02 -0.39141138218E+03  0.48303413627E+03  0.26476350835E+03 0.  0.
         25    1    4    4    0    0 -0.30889468777E+02 -0.14984036948E+02 -0.17478079710E+03  0.21765687625E+03  0.12509000000E+03 0.  0.
         25    1    3    3    0    0  0.57385650511E+01  0.99932278154E+02 -0.41387776434E+03  0.44380367648E+03  0.12509000000E+03 0.  0.
         25    1    4    4    0    0  0.25150903726E+02 -0.84948241206E+02 -0.21663058508E+03  0.26537726002E+03  0.12509000000E+03 0.  0.
<mgrwt>
<rscale>  2 0.45884390E+03</rscale>
<asrwt>0</asrwt>
<pdfrwt beam="1">  1       21 0.89374023E-02 0.45884390E+03</pdfrwt>
<pdfrwt beam="2">  1       21 0.12736227E+00 0.45884390E+03</pdfrwt>
<totfact> 0.40850946E+04</totfact>
</mgrwt>
</event>
<event>
 7    0  0.4709932E-002  0.4677484E+03  0.7546771E-02  0.1022558E+00
         21   -1    0    0  502  501  0.00000000000E+00  0.00000000000E+00  0.92635380301E+03  0.92635380301E+03  0.00000000000E+00 0.  1.
         21   -1    0    0  501  502 -0.00000000000E+00 -0.00000000000E+00 -0.59045638515E+02  0.59045638515E+02  0.00000000000E+00 0.  1.
      99926    2    1    2    0    0  0.00000000000E+00  0.00000000000E+00  0.86730816449E+03  0.98539944152E+03  0.46774844431E+03 0.  0.
      99925    2    3    3    0    0  0.56766599945E+02 -0.44728803906E+02  0.32544031322E+03  0.42460412315E+03  0.26297176875E+03 0.  0.
         25    1    4    4    0    0  0.46793713180E+02 -0.10081644580E+02  0.11198791714E+03  0.17458548862E+03  0.12509000000E+03 0.  0.
         25    1    3    3    0    0 -0.56766599945E+02  0.44728803906E+02  0.54186785127E+03  0.56079531837E+03  0.12509000000E+03 0.  0.
         25    1    4    4    0    0  0.99728867652E+01 -0.34647159325E+02  0.21345239609E+03  0.25001863453E+03  0.12509000000E+03 0.  0.
<mgrwt>
<rscale>  2 0.46774844E+03</rscale>
<asrwt>0</asrwt>
<pdfrwt beam="1">  1       21 0.13622849E+00 0.46774844E+03</pdfrwt>
<pdfrwt beam="2">  1       21 0.86831827E-02 0.46774844E+03</pdfrwt>
<totfact> 0.36014335E+04</totfact>
</mgrwt>
</event>
<event>
 7    0  0.4709932E-002  0.4612778E+03  0.7546771E-02  0.1024411E+00
         21   -1    0    0  502  501  0.00000000000E+00  0.00000000000E+00  0.30585460376E+02  0.30585460376E+02  0.00000000000E+00 0. -1.
         21   -1    0    0  501  502 -0.00000000000E+00 -0.00000000000E+00 -0.17392024932E+04  0.17392024932E+04  0.00000000000E+00 0. -1.
      99926    2    1    2    0    0 -0.71054273576E-14 -0.14210854715E-13 -0.17086170328E+04  0.17697879536E+04  0.46127782926E+03 0.  0.
      99925    2    3    3    0    0 -0.41691167911E+02 -0.97653230378E+02 -0.86293481124E+03  0.90833555507E+03  0.26294996724E+03 0.  0.
         25    1    3    3    0    0  0.41691167911E+02  0.97653230378E+02 -0.84568222159E+03  0.86145239851E+03  0.12509000000E+03 0.  0.
         25    1    4    4    0    0 -0.58675377684E+02 -0.38552181978E+02 -0.40470919835E+03  0.42937875356E+03  0.12509000000E+03 0.  0.
         25    1    4    4    0    0  0.16984209774E+02 -0.59101048401E+02 -0.45822561290E+03  0.47895680152E+03  0.12509000000E+03 0.  0.
<mgrwt>
<rscale>  2 0.46127783E+03</rscale>
<asrwt>0</asrwt>
<pdfrwt beam="1">  1       21 0.44978598E-02 0.46127783E+03</pdfrwt>
<pdfrwt beam="2">  1       21 0.25576519E+00 0.46127783E+03</pdfrwt>
<totfact> 0.17003320E+04</totfact>
</mgrwt>
</event>
<event>
 7    0  0.4709932E-002  0.4550262E+03  0.7546771E-02  0.1026234E+00
         21   -1    0    0  502  501  0.00000000000E+00  0.00000000000E+00  0.28331935341E+03  0.28331935341E+03  0.00000000000E+00 0.  1.
         21   -1    0    0  501  502 -0.00000000000E+00 -0.00000000000E+00 -0.18269920807E+03  0.18269920807E+03  0.00000000000E+00 0.  1.
      99926    2    1    2    0    0  0.71054273576E-14  0.00000000000E+00  0.10062014534E+03  0.46601856148E+03  0.45502624760E+03 0.  0.
      99925    2    3    3    0    0  0.33146777017E+02  0.10415848774E+03  0.33220038799E+02  0.28674786713E+03  0.26300773549E+03 0.  0.
         25    1    4    4    0    0  0.49949069852E+02  0.28613098918E+02  0.17871171865E+02  0.13885426134E+03  0.12509000000E+03 0.  0.
         25    1    4    4    0    0 -0.16802292835E+02  0.75545388818E+02  0.15348866934E+02  0.14789360579E+03  0.12509000000E+03 0.  0.
         25    1    3    3    0    0 -0.33146777017E+02 -0.10415848774E+03  0.67400106538E+02  0.17927069436E+03  0.12509000000E+03 0.  0.
<mgrwt>
<rscale>  2 0.45502625E+03</rscale>
<asrwt>0</asrwt>
<pdfrwt beam="1">  1       21 0.41664611E-01 0.45502625E+03</pdfrwt>
<pdfrwt beam="2">  1       21 0.26867531E-01 0.45502625E+03</pdfrwt>
<totfact> 0.67719328E+04</totfact>
</mgrwt>
</event>
<event>
 7    0  0.4709932E-002  0.4576988E+03  0.7546771E-02  0.1025451E+00
         21   -1    0    0  502  501  0.00000000000E+00  0.00000000000E+00  0.83442269780E+02  0.83442269780E+02  0.00000000000E+00 0.  1.
         21   -1    0    0  501  502 -0.00000000000E+00 -0.00000000000E+00 -0.62764414366E+03  0.62764414366E+03  0.00000000000E+00 0.  1.
      99926    2    1    2    0    0  0.00000000000E+00  0.00000000000E+00 -0.54420187388E+03  0.71108641344E+03  0.45769881783E+03 0.  0.
      99925    2    3    3    0    0 -0.33689819018E+02 -0.76864859411E+02 -0.21789670061E+03  0.35168999621E+03  0.26298986820E+03 0.  0.
         25    1    4    4    0    0 -0.22318077737E+02 -0.65522946955E+01 -0.13530943169E+03  0.18573416369E+03  0.12509000000E+03 0.  0.
         25    1    3    3    0    0  0.33689819018E+02  0.76864859411E+02 -0.32630517327E+03  0.35939641723E+03  0.12509000000E+03 0.  0.
         25    1    4    4    0    0 -0.11371741281E+02 -0.70312564715E+02 -0.82587268923E+02  0.16595583251E+03  0.12509000000E+03 0.  0.
<mgrwt>
<rscale>  2 0.45769882E+03</rscale>
<asrwt>0</asrwt>
<pdfrwt beam="1">  1       21 0.12270922E-01 0.45769882E+03</pdfrwt>
<pdfrwt beam="2">  1       21 0.92300613E-01 0.45769882E+03</pdfrwt>
<totfact> 0.51209166E+04</totfact>
</mgrwt>
</event>
<event>
 7    0  0.4709932E-002  0.4486848E+03  0.7546771E-02  0.1028115E+00
         21   -1    0    0  502  501  0.00000000000E+00  0.00000000000E+00  0.91386420579E+02  0.91386420579E+02  0.00000000000E+00 0. -1.
         21   -1    0    0  501  502 -0.00000000000E+00 -0.00000000000E+00 -0.55073283973E+03  0.55073283973E+03  0.00000000000E+00 0. -1.
      99926    2    1    2    0    0  0.00000000000E+00  0.00000000000E+00 -0.45934641915E+03  0.64211926031E+03  0.44868475757E+03 0.  0.
      99925    2    3    3    0    0  0.33236241188E+02 -0.36495441506E+02 -0.15464100392E+03  0.30905851037E+03  0.26299573715E+03 0.  0.
         25    1    3    3    0    0 -0.33236241188E+02  0.36495441506E+02 -0.30470541523E+03  0.33306074993E+03  0.12509000000E+03 0.  0.
         25    1    4    4    0    0  0.39476150329E+02 -0.43852658197E+02 -0.10696423243E+03  0.17484357922E+03  0.12509000000E+03 0.  0.
         25    1    4    4    0    0 -0.62399091412E+01  0.73572166917E+01 -0.47676771490E+02  0.13421493115E+03  0.12509000000E+03 0.  0.
<mgrwt>
<rscale>  2 0.44868476E+03</rscale>
<asrwt>0</asrwt>
<pdfrwt beam="1">  1       21 0.13439180E-01 0.44868476E+03</pdfrwt>
<pdfrwt beam="2">  1       21 0.80990122E-01 0.44868476E+03</pdfrwt>
<totfact> 0.59045542E+04</totfact>
</mgrwt>
</event>
<event>
 7    0  0.4709932E-002  0.4514463E+03  0.7546771E-02  0.1027292E+00
         21   -1    0    0  502  501  0.00000000000E+00  0.00000000000E+00  0.21858466970E+04  0.21858466970E+04  0.00000000000E+00 0. -1.
         21   -1    0    0  501  502 -0.00000000000E+00 -0.00000000000E+00 -0.23309478804E+02  0.23309478804E+02  0.00000000000E+00 0. -1.
      99926    2    1    2    0    0  0.00000000000E+00 -0.14210854715E-13  0.21625372182E+04  0.22091561758E+04  0.45144633016E+03 0.  0.
      99925    2    3    3    0    0  0.79975913788E+02 -0.73340874212E+02  0.14502220565E+04  0.14778454154E+04  0.26288405812E+03 0.  0.
         25    1    3    3    0    0 -0.79975913788E+02  0.73340874212E+02  0.71231516170E+03  0.73131076042E+03  0.12509000000E+03 0.  0.
         25    1    4    4    0    0  0.30702582408E+02 -0.73170970583E+02  0.84313938536E+03  0.85605383636E+03  0.12509000000E+03 0.  0.
         25    1    4    4    0    0  0.49273331380E+02 -0.16990362948E+00  0.60708267111E+03  0.62179157900E+03  0.12509000000E+03 0.  0.
<mgrwt>
<rscale>  2 0.45144633E+03</rscale>
<asrwt>0</asrwt>
<pdfrwt beam="1">  1       21 0.32144790E+00 0.45144633E+03</pdfrwt>
<pdfrwt beam="2">  1       21 0.34278660E-02 0.45144633E+03</pdfrwt>
<totfact> 0.10883191E+04</totfact>
</mgrwt>
</event>
<event>
 7    0  0.4709932E-002  0.4548004E+03  0.7546771E-02  0.1026300E+00
         21   -1    0    0  502  501  0.00000000000E+00  0.00000000000E+00  0.20461048311E+03  0.20461048311E+03  0.00000000000E+00 0.  1.
         21   -1    0    0  501  502 -0.00000000000E+00 -0.00000000000E+00 -0.25272821432E+03  0.25272821432E+03  0.00000000000E+00 0.  1.
      99926    2    1    2    0    0 -0.17763568394E-14  0.14210854715E-13 -0.48117731211E+02  0.45733869743E+03  0.45480036072E+03 0.  0.
      99925    2    3    3    0    0  0.10556684572E+02 -0.11295719469E+03 -0.36870294403E+02  0.28809099624E+03  0.26223316359E+03 0.  0.
         25    1    4    4    0    0  0.11144916774E+02 -0.62873962395E+02 -0.57530198310E+02  0.15177146021E+03  0.12509000000E+03 0.  0.
         25    1    3    3    0    0 -0.10556684572E+02  0.11295719469E+03 -0.11247436808E+02  0.16924770119E+03  0.12509000000E+03 0.  0.
         25    1    4    4    0    0 -0.58823220237E+00 -0.50083232297E+02  0.20659903907E+02  0.13631953603E+03  0.12509000000E+03 0.  0.
<mgrwt>
<rscale>  2 0.45480036E+03</rscale>
<asrwt>0</asrwt>
<pdfrwt beam="1">  1       21 0.30089777E-01 0.45480036E+03</pdfrwt>
<pdfrwt beam="2">  1       21 0.37165914E-01 0.45480036E+03</pdfrwt>
<totfact> 0.68483785E+04</totfact>
</mgrwt>
</event>
<event>
 7    0  0.4709932E-002  0.4492062E+03  0.7546771E-02  0.1027959E+00
         21   -1    0    0  502  501  0.00000000000E+00  0.00000000000E+00  0.64410606957E+03  0.64410606957E+03  0.00000000000E+00 0. -1.
         21   -1    0    0  501  502 -0.00000000000E+00 -0.00000000000E+00 -0.78320253420E+02  0.78320253420E+02  0.00000000000E+00 0. -1.
      99926    2    1    2    0    0  0.00000000000E+00  0.71054273576E-14  0.56578581615E+03  0.72242632299E+03  0.44920619140E+03 0.  0.
      99925    2    3    3    0    0 -0.79330734689E+02  0.53341952980E+02  0.43662908892E+03  0.51879013342E+03  0.26336194074E+03 0.  0.
         25    1    4    4    0    0 -0.40788209182E+02  0.68604079109E+02  0.22888147168E+03  0.27277176147E+03  0.12509000000E+03 0.  0.
         25    1    4    4    0    0 -0.38542525507E+02 -0.15262126128E+02  0.20774761725E+03  0.24601837195E+03  0.12509000000E+03 0.  0.
         25    1    3    3    0    0  0.79330734689E+02 -0.53341952980E+02  0.12915672723E+03  0.20363618957E+03  0.12509000000E+03 0.  0.
<mgrwt>
<rscale>  2 0.44920619E+03</rscale>
<asrwt>0</asrwt>
<pdfrwt beam="1">  1       21 0.94721478E-01 0.44920619E+03</pdfrwt>
<pdfrwt beam="2">  1       21 0.11517685E-01 0.44920619E+03</pdfrwt>
<totfact> 0.54126878E+04</totfact>
</mgrwt>
</event>
<event>
 7    0  0.4709932E-002  0.4515147E+03  0.7546771E-02  0.1027271E+00
         21   -1    0    0  502  501  0.00000000000E+00  0.00000000000E+00  0.10452875620E+03  0.10452875620E+03  0.00000000000E+00 0.  1.
         21   -1    0    0  501  502 -0.00000000000E+00 -0.00000000000E+00 -0.48758232871E+03  0.48758232871E+03  0.00000000000E+00 0.  1.
      99926    2    1    2    0    0  0.00000000000E+00 -0.35527136788E-14 -0.38305357251E+03  0.59211108491E+03  0.45151467026E+03 0.  0.
      99925    2    3    3    0    0  0.19604439233E+02  0.25190163885E+02 -0.37925053064E+03  0.46295672137E+03  0.26358885121E+03 0.  0.
         25    1    4    4    0    0 -0.25430275749E+02 -0.78205786312E+01 -0.19919284245E+03  0.23671323782E+03  0.12509000000E+03 0.  0.
         25    1    3    3    0    0 -0.19604439233E+02 -0.25190163885E+02 -0.38030418746E+01  0.12915436354E+03  0.12509000000E+03 0.  0.
         25    1    4    4    0    0  0.45034714982E+02  0.33010742516E+02 -0.18005768818E+03  0.22624348355E+03  0.12509000000E+03 0.  0.
<mgrwt>
<rscale>  2 0.45151467E+03</rscale>
<asrwt>0</asrwt>
<pdfrwt beam="1">  1       21 0.15371876E-01 0.45151467E+03</pdfrwt>
<pdfrwt beam="2">  1       21 0.71703283E-01 0.45151467E+03</pdfrwt>
<totfact> 0.60824635E+04</totfact>
</mgrwt>
</event>
<event>
 7    0  0.4709932E-002  0.4528989E+03  0.7546771E-02  0.1026861E+00
         21   -1    0    0  502  501  0.00000000000E+00  0.00000000000E+00  0.26246837733E+03  0.26246837733E+03  0.00000000000E+00 0.  1.
         21   -1    0    0  501  502 -0.00000000000E+00 -0.00000000000E+00 -0.19537348846E+03  0.19537348846E+03  0.00000000000E+00 0.  1.
      99926    2    1    2    0    0  0.88817841970E-15  0.00000000000E+00  0.67094888873E+02  0.45784186579E+03  0.45289894011E+03 0.  0.
      99925    2    3    3    0    0 -0.30284206837E+01  0.66815041004E+02  0.13213413850E+03  0.30179369012E+03  0.26295737260E+03 0.  0.
         25    1    4    4    0    0  0.62068733032E+01  0.19101688502E+02  0.22872403871E+02  0.12874026075E+03  0.12509000000E+03 0.  0.
         25    1    4    4    0    0 -0.92352939869E+01  0.47713352502E+02  0.10926173463E+03  0.17305342937E+03  0.12509000000E+03 0.  0.
         25    1    3    3    0    0  0.30284206837E+01 -0.66815041004E+02 -0.65039249631E+02  0.15604817567E+03  0.12509000000E+03 0.  0.
<mgrwt>
<rscale>  2 0.45289894E+03</rscale>
<asrwt>0</asrwt>
<pdfrwt beam="1">  1       21 0.38598291E-01 0.45289894E+03</pdfrwt>
<pdfrwt beam="2">  1       21 0.28731395E-01 0.45289894E+03</pdfrwt>
<totfact> 0.69495269E+04</totfact>
</mgrwt>
</event>
<event>
 7    0  0.4709932E-002  0.4526184E+03  0.7546771E-02  0.1026944E+00
         21   -1    0    0  502  501  0.00000000000E+00  0.00000000000E+00  0.21401836124E+04  0.21401836124E+04  0.00000000000E+00 0.  1.
         21   -1    0    0  501  502 -0.00000000000E+00 -0.00000000000E+00 -0.23930587076E+02  0.23930587076E+02  0.00000000000E+00 0.  1.
      99926    2    1    2    0    0  0.00000000000E+00  0.00000000000E+00  0.21162530253E+04  0.21641141995E+04  0.45261838361E+03 0.  0.
      99925    2    3    3    0    0 -0.88781696657E+02 -0.59181921283E+02  0.14780249151E+04  0.15050487109E+04  0.26311458155E+03 0.  0.
         25    1    3    3    0    0  0.88781696657E+02  0.59181921283E+02  0.63822811021E+03  0.65906548858E+03  0.12509000000E+03 0.  0.
         25    1    4    4    0    0 -0.37296896132E+02 -0.10028408009E+02  0.51759702832E+03  0.53389682454E+03  0.12509000000E+03 0.  0.
         25    1    4    4    0    0 -0.51484800525E+02 -0.49153513274E+02  0.96042788681E+03  0.97115188637E+03  0.12509000000E+03 0.  0.
<mgrwt>
<rscale>  2 0.45261838E+03</rscale>
<asrwt>0</asrwt>
<pdfrwt beam="1">  1       21 0.31473276E+00 0.45261838E+03</pdfrwt>
<pdfrwt beam="2">  1       21 0.35192054E-02 0.45261838E+03</pdfrwt>
<totfact> 0.11420459E+04</totfact>
</mgrwt>
</event>
<event>
 7    0  0.4709932E-002  0.4236350E+03  0.7546771E-02  0.1035890E+00
         21   -1    0    0  502  501  0.00000000000E+00  0.00000000000E+00  0.35995464653E+02  0.35995464653E+02  0.00000000000E+00 0.  1.
         21   -1    0    0  501  502 -0.00000000000E+00 -0.00000000000E+00 -0.12464530224E+04  0.12464530224E+04  0.00000000000E+00 0.  1.
      99926    2    1    2    0    0  0.00000000000E+00  0.35527136788E-14 -0.12104575577E+04  0.12824484870E+04  0.42363501134E+03 0.  0.
      99925    2    3    3    0    0 -0.17872090606E+02 -0.30755853230E+02 -0.56796544132E+03  0.62692658666E+03  0.26303396813E+03 0.  0.
         25    1    4    4    0    0 -0.14603640727E+02  0.24980739547E+02 -0.26867377532E+03  0.29777577019E+03  0.12509000000E+03 0.  0.
         25    1    3    3    0    0  0.17872090606E+02  0.30755853230E+02 -0.64249211639E+03  0.65552190037E+03  0.12509000000E+03 0.  0.
         25    1    4    4    0    0 -0.32684498786E+01 -0.55736592777E+02 -0.29929166600E+03  0.32915081646E+03  0.12509000000E+03 0.  0.
<mgrwt>
<rscale>  2 0.42363501E+03</rscale>
<asrwt>0</asrwt>
<pdfrwt beam="1">  1       21 0.52934507E-02 0.42363501E+03</pdfrwt>
<pdfrwt beam="2">  1       21 0.18330191E+00 0.42363501E+03</pdfrwt>
<totfact> 0.38112949E+04</totfact>
</mgrwt>
</event>
<event>
 7    0  0.4709932E-002  0.4551517E+03  0.7546771E-02  0.1026197E+00
         21   -1    0    0  502  501  0.00000000000E+00  0.00000000000E+00  0.25915260845E+03  0.25915260845E+03  0.00000000000E+00 0.  1.
         21   -1    0    0  501  502 -0.00000000000E+00 -0.00000000000E+00 -0.19984662484E+03  0.19984662484E+03  0.00000000000E+00 0.  1.
      99926    2    1    2    0    0  0.00000000000E+00  0.00000000000E+00  0.59305983607E+02  0.45899923329E+03  0.45515172907E+03 0.  0.
      99925    2    3    3    0    0  0.58526682134E+02 -0.82440618097E+02 -0.14472394167E+02  0.28204560897E+03  0.26290387466E+03 0.  0.
         25    1    3    3    0    0 -0.58526682134E+02  0.82440618097E+02  0.73778377774E+02  0.17695362432E+03  0.12509000000E+03 0.  0.
         25    1    4    4    0    0 -0.17775986474E+00 -0.36943679329E+02  0.21487676397E+02  0.13218961902E+03  0.12509000000E+03 0.  0.
         25    1    4    4    0    0  0.58704441999E+02 -0.45496938768E+02 -0.35960070563E+02  0.14985598995E+03  0.12509000000E+03 0.  0.
<mgrwt>
<rscale>  2 0.45515173E+03</rscale>
<asrwt>0</asrwt>
<pdfrwt beam="1">  1       21 0.38110678E-01 0.45515173E+03</pdfrwt>
<pdfrwt beam="2">  1       21 0.29389210E-01 0.45515173E+03</pdfrwt>
<totfact> 0.68171025E+04</totfact>
</mgrwt>
</event>
<event>
 7    0  0.4709932E-002  0.4551609E+03  0.7546771E-02  0.1026194E+00
         21   -1    0    0  502  501  0.00000000000E+00  0.00000000000E+00  0.13498491380E+03  0.13498491380E+03  0.00000000000E+00 0. -1.
         21   -1    0    0  501  502 -0.00000000000E+00 -0.00000000000E+00 -0.38369378416E+03  0.38369378416E+03  0.00000000000E+00 0. -1.
      99926    2    1    2    0    0  0.00000000000E+00  0.14210854715E-13 -0.24870887036E+03  0.51867869796E+03  0.45516094904E+03 0.  0.
      99925    2    3    3    0    0 -0.44550471383E+02  0.64412938065E+02 -0.24986472346E+03  0.37108935151E+03  0.26294705870E+03 0.  0.
         25    1    4    4    0    0 -0.11325314003E+02 -0.47018088417E+01 -0.13742790889E+03  0.18623723577E+03  0.12509000000E+03 0.  0.
         25    1    3    3    0    0  0.44550471383E+02 -0.64412938065E+02  0.11558531066E+01  0.14758934646E+03  0.12509000000E+03 0.  0.
         25    1    4    4    0    0 -0.33225157380E+02  0.69114746907E+02 -0.11243681457E+03  0.18485211574E+03  0.12509000000E+03 0.  0.
<mgrwt>
<rscale>  2 0.45516095E+03</rscale>
<asrwt>0</asrwt>
<pdfrwt beam="1">  1       21 0.19850722E-01 0.45516095E+03</pdfrwt>
<pdfrwt beam="2">  1       21 0.56425557E-01 0.45516095E+03</pdfrwt>
<totfact> 0.63895750E+04</totfact>
</mgrwt>
</event>
<event>
 7    0  0.4709932E-002  0.4525274E+03  0.7546771E-02  0.1026971E+00
         21   -1    0    0  502  501  0.00000000000E+00  0.00000000000E+00  0.15374148035E+03  0.15374148035E+03  0.00000000000E+00 0. -1.
         21   -1    0    0  501  502 -0.00000000000E+00 -0.00000000000E+00 -0.33299571197E+03  0.33299571197E+03  0.00000000000E+00 0. -1.
      99926    2    1    2    0    0  0.35527136788E-14  0.35527136788E-14 -0.17925423162E+03  0.48673719232E+03  0.45252736363E+03 0.  0.
      99925    2    3    3    0    0 -0.28842523782E+02 -0.26793379410E+02 -0.11172803135E+01  0.26553579568E+03  0.26259899869E+03 0.  0.
         25    1    4    4    0    0  0.11461019952E+02  0.32490932304E+01 -0.26332311480E+02  0.12838539758E+03  0.12509000000E+03 0.  0.
         25    1    4    4    0    0 -0.40303543734E+02 -0.30042472640E+02  0.25215031166E+02  0.13715039809E+03  0.12509000000E+03 0.  0.
         25    1    3    3    0    0  0.28842523782E+02  0.26793379410E+02 -0.17813695130E+03  0.22120139665E+03  0.12509000000E+03 0.  0.
<mgrwt>
<rscale>  2 0.45252736E+03</rscale>
<asrwt>0</asrwt>
<pdfrwt beam="1">  1       21 0.22609042E-01 0.45252736E+03</pdfrwt>
<pdfrwt beam="2">  1       21 0.48969957E-01 0.45252736E+03</pdfrwt>
<totfact> 0.67528698E+04</totfact>
</mgrwt>
</event>
<event>
 7    0  0.4709932E-002  0.4479453E+03  0.7546771E-02  0.1028337E+00
         21   -1    0    0  502  501  0.00000000000E+00  0.00000000000E+00  0.52203085483E+03  0.52203085483E+03  0.00000000000E+00 0. -1.
         21   -1    0    0  501  502 -0.00000000000E+00 -0.00000000000E+00 -0.96093456232E+02  0.96093456232E+02  0.00000000000E+00 0. -1.
      99926    2    1    2    0    0  0.00000000000E+00  0.00000000000E+00  0.42593739860E+03  0.61812431106E+03  0.44794530514E+03 0.  0.
      99925    2    3    3    0    0 -0.78065418836E+02  0.64024786926E+02  0.22364821840E+03  0.35974125534E+03  0.26306246832E+03 0.  0.
         25    1    4    4    0    0  0.43864500888E+00  0.39037278146E+02  0.11912641090E+03  0.17709520425E+03  0.12509000000E+03 0.  0.
         25    1    4    4    0    0 -0.78504063845E+02  0.24987508780E+02  0.10452180750E+03  0.18264605109E+03  0.12509000000E+03 0.  0.
         25    1    3    3    0    0  0.78065418836E+02 -0.64024786926E+02  0.20228918020E+03  0.25838305572E+03  0.12509000000E+03 0.  0.
<mgrwt>
<rscale>  2 0.44794531E+03</rscale>
<asrwt>0</asrwt>
<pdfrwt beam="1">  1       21 0.76769242E-01 0.44794531E+03</pdfrwt>
<pdfrwt beam="2">  1       21 0.14131391E-01 0.44794531E+03</pdfrwt>
<totfact> 0.60898626E+04</totfact>
</mgrwt>
</event>
<event>
 7    0  0.4709932E-002  0.4515729E+03  0.7546771E-02  0.1027254E+00
         21   -1    0    0  502  501  0.00000000000E+00  0.00000000000E+00  0.49179680375E+03  0.49179680375E+03  0.00000000000E+00 0. -1.
         21   -1    0    0  501  502 -0.00000000000E+00 -0.00000000000E+00 -0.10365971205E+03  0.10365971205E+03  0.00000000000E+00 0. -1.
      99926    2    1    2    0    0 -0.14210854715E-13  0.00000000000E+00  0.38813709170E+03  0.59545651581E+03  0.45157287370E+03 0.  0.
      99925    2    3    3    0    0  0.81495286962E+02 -0.19747948970E+02  0.33866396422E+03  0.43694291472E+03  0.26304822139E+03 0.  0.
         25    1    4    4    0    0  0.66921838347E+02 -0.69736166052E+01  0.12815617837E+03  0.19130780938E+03  0.12509000000E+03 0.  0.
         25    1    3    3    0    0 -0.81495286962E+02  0.19747948970E+02  0.49473127480E+02  0.15851360108E+03  0.12509000000E+03 0.  0.
         25    1    4    4    0    0  0.14573448615E+02 -0.12774332365E+02  0.21050778585E+03  0.24563510534E+03  0.12509000000E+03 0.  0.
<mgrwt>
<rscale>  2 0.45157287E+03</rscale>
<asrwt>0</asrwt>
<pdfrwt beam="1">  1       21 0.72323058E-01 0.45157287E+03</pdfrwt>
<pdfrwt beam="2">  1       21 0.15244076E-01 0.45157287E+03</pdfrwt>
<totfact> 0.60582901E+04</totfact>
</mgrwt>
</event>
<event>
 7    0  0.4709932E-002  0.4583323E+03  0.7546771E-02  0.1025266E+00
         21   -1    0    0  502  501  0.00000000000E+00  0.00000000000E+00  0.12273711343E+04  0.12273711343E+04  0.00000000000E+00 0. -1.
         21   -1    0    0  501  502 -0.00000000000E+00 -0.00000000000E+00 -0.42788299634E+02  0.42788299634E+02  0.00000000000E+00 0. -1.
      99926    2    1    2    0    0  0.00000000000E+00 -0.35527136788E-14  0.11845828347E+04  0.12701594339E+04  0.45833229804E+03 0.  0.
      99925    2    3    3    0    0 -0.94534895611E+02  0.15776704460E+02  0.92590550188E+03  0.96726139583E+03  0.26288373582E+03 0.  0.
         25    1    3    3    0    0  0.94534895611E+02 -0.15776704460E+02  0.25867733280E+03  0.30289803812E+03  0.12509000000E+03 0.  0.
         25    1    4    4    0    0 -0.69608525907E+02  0.36348502524E+02  0.42374696064E+03  0.44874887773E+03  0.12509000000E+03 0.  0.
         25    1    4    4    0    0 -0.24926369704E+02 -0.20571798064E+02  0.50215854124E+03  0.51851251810E+03  0.12509000000E+03 0.  0.
<mgrwt>
<rscale>  2 0.45833230E+03</rscale>
<asrwt>0</asrwt>
<pdfrwt beam="1">  1       21 0.18049573E+00 0.45833230E+03</pdfrwt>
<pdfrwt beam="2">  1       21 0.62923978E-02 0.45833230E+03</pdfrwt>
<totfact> 0.29228378E+04</totfact>
</mgrwt>
</event>
<event>
 7    0  0.4709932E-002  0.4537390E+03  0.7546771E-02  0.1026613E+00
         21   -1    0    0  502  501  0.00000000000E+00  0.00000000000E+00  0.39721117877E+03  0.39721117877E+03  0.00000000000E+00 0. -1.
         21   -1    0    0  501  502 -0.00000000000E+00 -0.00000000000E+00 -0.12957785500E+03  0.12957785500E+03  0.00000000000E+00 0. -1.
      99926    2    1    2    0    0  0.00000000000E+00  0.14210854715E-13  0.26763332378E+03  0.52678903377E+03  0.45373901100E+03 0.  0.
      99925    2    3    3    0    0 -0.32340584294E+02  0.96453601449E+02  0.11407516546E+03  0.30413049091E+03  0.26293155288E+03 0.  0.
         25    1    4    4    0    0  0.20907500337E+01  0.83960855556E+02  0.48932685476E+02  0.15841626277E+03  0.12509000000E+03 0.  0.
         25    1    4    4    0    0 -0.34431334327E+02  0.12492745893E+02  0.65142479985E+02  0.14571422814E+03  0.12509000000E+03 0.  0.
         25    1    3    3    0    0  0.32340584294E+02 -0.96453601449E+02  0.15355815832E+03  0.22265854287E+03  0.12509000000E+03 0.  0.
<mgrwt>
<rscale>  2 0.45373901E+03</rscale>
<asrwt>0</asrwt>
<pdfrwt beam="1">  1       21 0.58413408E-01 0.45373901E+03</pdfrwt>
<pdfrwt beam="2">  1       21 0.19055567E-01 0.45373901E+03</pdfrwt>
<totfact> 0.64062361E+04</totfact>
</mgrwt>
</event>
<event>
 7    0  0.4709932E-002  0.4192703E+03  0.7546771E-02  0.1037304E+00
         21   -1    0    0  502  501  0.00000000000E+00  0.00000000000E+00  0.29495101968E+03  0.29495101968E+03  0.00000000000E+00 0.  1.
         21   -1    0    0  501  502 -0.00000000000E+00 -0.00000000000E+00 -0.14899727606E+03  0.14899727606E+03  0.00000000000E+00 0.  1.
      99926    2    1    2    0    0  0.00000000000E+00  0.71054273576E-14  0.14595374362E+03  0.44394829574E+03  0.41927031139E+03 0.  0.
      99925    2    3    3    0    0  0.49329104750E+02  0.44496268289E+02  0.58545785233E+02  0.27751230878E+03  0.26300607234E+03 0.  0.
         25    1    4    4    0    0  0.23368820718E+02 -0.18643941501E+02  0.32338943981E+02  0.13261603875E+03  0.12509000000E+03 0.  0.
         25    1    3    3    0    0 -0.49329104750E+02 -0.44496268289E+02  0.87407958382E+02  0.16643598696E+03  0.12509000000E+03 0.  0.
         25    1    4    4    0    0  0.25960284031E+02  0.63140209790E+02  0.26206841252E+02  0.14489627003E+03  0.12509000000E+03 0.  0.
<mgrwt>
<rscale>  2 0.41927031E+03</rscale>
<asrwt>0</asrwt>
<pdfrwt beam="1">  1       21 0.43375150E-01 0.41927031E+03</pdfrwt>
<pdfrwt beam="2">  1       21 0.21911364E-01 0.41927031E+03</pdfrwt>
<totfact> 0.93161341E+04</totfact>
</mgrwt>
</event>
<event>
 7    0  0.4709932E-002  0.4556074E+03  0.7546771E-02  0.1026063E+00
         21   -1    0    0  502  501  0.00000000000E+00  0.00000000000E+00  0.51361626031E+03  0.51361626031E+03  0.00000000000E+00 0.  1.
         21   -1    0    0  501  502 -0.00000000000E+00 -0.00000000000E+00 -0.10103752396E+03  0.10103752396E+03  0.00000000000E+00 0.  1.
      99926    2    1    2    0    0  0.00000000000E+00 -0.14210854715E-13  0.41257873634E+03  0.61465378427E+03  0.45560735380E+03 0.  0.
      99925    2    3    3    0    0 -0.62238085223E+02  0.95207319951E+02  0.25053215140E+03  0.38046450865E+03  0.26277151754E+03 0.  0.
         25    1    4    4    0    0 -0.45369210732E+02  0.60767518408E+02  0.84003955236E+02  0.16868677829E+03  0.12509000000E+03 0.  0.
         25    1    4    4    0    0 -0.16868874491E+02  0.34439801543E+02  0.16652819617E+03  0.21177773036E+03  0.12509000000E+03 0.  0.
         25    1    3    3    0    0  0.62238085223E+02 -0.95207319951E+02  0.16204658494E+03  0.23418927562E+03  0.12509000000E+03 0.  0.
<mgrwt>
<rscale>  2 0.45560735E+03</rscale>
<asrwt>0</asrwt>
<pdfrwt beam="1">  1       21 0.75531802E-01 0.45560735E+03</pdfrwt>
<pdfrwt beam="2">  1       21 0.14858460E-01 0.45560735E+03</pdfrwt>
<totfact> 0.57508883E+04</totfact>
</mgrwt>
</event>
<event>
 7    0  0.4709932E-002  0.4545280E+03  0.7546771E-02  0.1026380E+00
         21   -1    0    0  502  501  0.00000000000E+00  0.00000000000E+00  0.15461622315E+03  0.15461622315E+03  0.00000000000E+00 0. -1.
         21   -1    0    0  501  502 -0.00000000000E+00 -0.00000000000E+00 -0.33404597585E+03  0.33404597585E+03  0.00000000000E+00 0. -1.
      99926    2    1    2    0    0  0.00000000000E+00  0.71054273576E-14 -0.17942975270E+03  0.48866219899E+03  0.45452800637E+03 0.  0.
      99925    2    3    3    0    0 -0.44232548486E+02 -0.57927561532E+02 -0.20537003364E+03  0.34158219693E+03  0.26303882948E+03 0.  0.
         25    1    4    4    0    0 -0.12174897911E+02 -0.56124189266E+02 -0.69743487632E+02  0.15430429329E+03  0.12509000000E+03 0.  0.
         25    1    3    3    0    0  0.44232548486E+02  0.57927561532E+02  0.25940280943E+02  0.14708000206E+03  0.12509000000E+03 0.  0.
         25    1    4    4    0    0 -0.32057650575E+02 -0.18033722653E+01 -0.13562654601E+03  0.18727790365E+03  0.12509000000E+03 0.  0.
<mgrwt>
<rscale>  2 0.45452801E+03</rscale>
<asrwt>0</asrwt>
<pdfrwt beam="1">  1       21 0.22737680E-01 0.45452801E+03</pdfrwt>
<pdfrwt beam="2">  1       21 0.49124407E-01 0.45452801E+03</pdfrwt>
<totfact> 0.66322920E+04</totfact>
</mgrwt>
</event>
<event>
 7    0  0.4709932E-002  0.4545162E+03  0.7546771E-02  0.1026384E+00
         21   -1    0    0  502  501  0.00000000000E+00  0.00000000000E+00  0.26344688734E+02  0.26344688734E+02  0.00000000000E+00 0.  1.
         21   -1    0    0  501  502 -0.00000000000E+00 -0.00000000000E+00 -0.19604045177E+04  0.19604045177E+04  0.00000000000E+00 0.  1.
      99926    2    1    2    0    0  0.71054273576E-14  0.00000000000E+00 -0.19340598289E+04  0.19867492064E+04  0.45451621230E+03 0.  0.
      99925    2    3    3    0    0 -0.61310093947E+02 -0.58512033552E+02 -0.15398857198E+04  0.15646078532E+04  0.26375579329E+03 0.  0.
         25    1    4    4    0    0  0.78643016082E+01 -0.37997707600E+02 -0.81823317048E+03  0.82864872074E+03  0.12509000000E+03 0.  0.
         25    1    3    3    0    0  0.61310093947E+02  0.58512033552E+02 -0.39417410914E+03  0.42214135323E+03  0.12509000000E+03 0.  0.
         25    1    4    4    0    0 -0.69174395555E+02 -0.20514325952E+02 -0.72165254934E+03  0.73595913245E+03  0.12509000000E+03 0.  0.
<mgrwt>
<rscale>  2 0.45451621E+03</rscale>
<asrwt>0</asrwt>
<pdfrwt beam="1">  1       21 0.38742191E-02 0.45451621E+03</pdfrwt>
<pdfrwt beam="2">  1       21 0.28829477E+00 0.45451621E+03</pdfrwt>
<totfact> 0.13979698E+04</totfact>
</mgrwt>
</event>
<event>
 7    0  0.4709932E-002  0.4570986E+03  0.7546771E-02  0.1025626E+00
         21   -1    0    0  502  501  0.00000000000E+00  0.00000000000E+00  0.19620638535E+03  0.19620638535E+03  0.00000000000E+00 0. -1.
         21   -1    0    0  501  502 -0.00000000000E+00 -0.00000000000E+00 -0.26622361765E+03  0.26622361765E+03  0.00000000000E+00 0. -1.
      99926    2    1    2    0    0  0.00000000000E+00  0.00000000000E+00 -0.70017232293E+02  0.46243000300E+03  0.45709856142E+03 0.  0.
      99925    2    3    3    0    0  0.26536677321E+02 -0.11170872085E+03 -0.36403212140E+02  0.28933914822E+03  0.26307587362E+03 0.  0.
         25    1    4    4    0    0  0.83371434822E+01 -0.75033153611E+02  0.17416979623E+02  0.14714054975E+03  0.12509000000E+03 0.  0.
         25    1    4    4    0    0  0.18199533839E+02 -0.36675567243E+02 -0.53820191763E+02  0.14219859847E+03  0.12509000000E+03 0.  0.
         25    1    3    3    0    0 -0.26536677321E+02  0.11170872085E+03 -0.33614020153E+02  0.17309085478E+03  0.12509000000E+03 0.  0.
<mgrwt>
<rscale>  2 0.45709856E+03</rscale>
<asrwt>0</asrwt>
<pdfrwt beam="1">  1       21 0.28853880E-01 0.45709856E+03</pdfrwt>
<pdfrwt beam="2">  1       21 0.39150532E-01 0.45709856E+03</pdfrwt>
<totfact> 0.66877589E+04</totfact>
</mgrwt>
</event>
<event>
 7    0  0.4709932E-002  0.4563099E+03  0.7546771E-02  0.1025857E+00
         21   -1    0    0  502  501  0.00000000000E+00  0.00000000000E+00  0.67689995017E+02  0.67689995017E+02  0.00000000000E+00 0.  1.
         21   -1    0    0  501  502 -0.00000000000E+00 -0.00000000000E+00 -0.76901602646E+03  0.76901602646E+03  0.00000000000E+00 0.  1.
      99926    2    1    2    0    0  0.00000000000E+00  0.00000000000E+00 -0.70132603144E+03  0.83670602147E+03  0.45630994291E+03 0.  0.
      99925    2    3    3    0    0 -0.34177951480E+02 -0.18582228963E+02 -0.24335611094E+03  0.36036854890E+03  0.26292558396E+03 0.  0.
         25    1    4    4    0    0  0.15074934680E+02 -0.27491936958E+02 -0.96475325669E+02  0.16105296277E+03  0.12509000000E+03 0.  0.
         25    1    3    3    0    0  0.34177951480E+02  0.18582228963E+02 -0.45796992050E+03  0.47633747258E+03  0.12509000000E+03 0.  0.
         25    1    4    4    0    0 -0.49252886159E+02  0.89097079949E+01 -0.14688078527E+03  0.19931558613E+03  0.12509000000E+03 0.  0.
<mgrwt>
<rscale>  2 0.45630994E+03</rscale>
<asrwt>0</asrwt>
<pdfrwt beam="1">  1       21 0.99544112E-02 0.45630994E+03</pdfrwt>
<pdfrwt beam="2">  1       21 0.11309059E+00 0.45630994E+03</pdfrwt>
<totfact> 0.45569901E+04</totfact>
</mgrwt>
</event>
<event>
 7    0  0.4709932E-002  0.4449817E+03  0.7546771E-02  0.1029229E+00
         21   -1    0    0  502  501  0.00000000000E+00  0.00000000000E+00  0.76535067930E+02  0.76535067930E+02  0.00000000000E+00 0.  1.
         21   -1    0    0  501  502 -0.00000000000E+00 -0.00000000000E+00 -0.64679069200E+03  0.64679069200E+03  0.00000000000E+00 0.  1.
      99926    2    1    2    0    0  0.00000000000E+00 -0.12212453271E-14 -0.57025562407E+03  0.72332575993E+03  0.44498166052E+03 0.  0.
      99925    2    3    3    0    0 -0.10201045323E+03  0.31122058461E+00 -0.38898131198E+03  0.48060346234E+03  0.26318624111E+03 0.  0.
         25    1    4    4    0    0 -0.29986009892E+02  0.32339487899E+02 -0.21092804385E+03  0.24916490734E+03  0.12509000000E+03 0.  0.
         25    1    4    4    0    0 -0.72024443342E+02 -0.32028267314E+02 -0.17805326814E+03  0.23143855500E+03  0.12509000000E+03 0.  0.
         25    1    3    3    0    0  0.10201045323E+03 -0.31122058461E+00 -0.18127431209E+03  0.24272229759E+03  0.12509000000E+03 0.  0.
<mgrwt>
<rscale>  2 0.44498166E+03</rscale>
<asrwt>0</asrwt>
<pdfrwt beam="1">  1       21 0.11255157E-01 0.44498166E+03</pdfrwt>
<pdfrwt beam="2">  1       21 0.95116275E-01 0.44498166E+03</pdfrwt>
<totfact> 0.55933332E+04</totfact>
</mgrwt>
</event>
<event>
 7    0  0.4709932E-002  0.4546915E+03  0.7546771E-02  0.1026332E+00
         21   -1    0    0  502  501  0.00000000000E+00  0.00000000000E+00  0.46442042828E+03  0.46442042828E+03  0.00000000000E+00 0.  1.
         21   -1    0    0  501  502 -0.00000000000E+00 -0.00000000000E+00 -0.11129158193E+03  0.11129158193E+03  0.00000000000E+00 0.  1.
      99926    2    1    2    0    0  0.00000000000E+00  0.00000000000E+00  0.35312884635E+03  0.57571201021E+03  0.45469147405E+03 0.  0.
      99925    2    3    3    0    0 -0.10091932944E+03  0.47272579022E+02  0.20024620020E+03  0.34890808746E+03  0.26309485934E+03 0.  0.
         25    1    4    4    0    0 -0.13666823723E+02  0.71952057760E+01  0.68669128569E+02  0.14353226249E+03  0.12509000000E+03 0.  0.
         25    1    4    4    0    0 -0.87252505722E+02  0.40077373246E+02  0.13157707163E+03  0.20537582497E+03  0.12509000000E+03 0.  0.
         25    1    3    3    0    0  0.10091932944E+03 -0.47272579022E+02  0.15288264614E+03  0.22680392275E+03  0.12509000000E+03 0.  0.
<mgrwt>
<rscale>  2 0.45469147E+03</rscale>
<asrwt>0</asrwt>
<pdfrwt beam="1">  1       21 0.68297121E-01 0.45469147E+03</pdfrwt>
<pdfrwt beam="2">  1       21 0.16366409E-01 0.45469147E+03</pdfrwt>
<totfact> 0.60345803E+04</totfact>
</mgrwt>
</event>
<event>
 7    0  0.4709932E-002  0.4428245E+03  0.7546771E-02  0.1029884E+00
         21   -1    0    0  502  501  0.00000000000E+00  0.00000000000E+00  0.25642881948E+03  0.25642881948E+03  0.00000000000E+00 0. -1.
         21   -1    0    0  501  502 -0.00000000000E+00 -0.00000000000E+00 -0.19117737162E+03  0.19117737162E+03  0.00000000000E+00 0. -1.
      99926    2    1    2    0    0 -0.17763568394E-14  0.00000000000E+00  0.65251447863E+02  0.44760619110E+03  0.44282451475E+03 0.  0.
      99925    2    3    3    0    0  0.15129722155E+02 -0.94269874174E+02  0.76186589303E+02  0.28986335263E+03  0.26287002328E+03 0.  0.
         25    1    4    4    0    0  0.17306345977E+02 -0.22176605397E+02  0.36316540575E+01  0.12826538289E+03  0.12509000000E+03 0.  0.
         25    1    3    3    0    0 -0.15129722155E+02  0.94269874174E+02 -0.10935141440E+02  0.15774283847E+03  0.12509000000E+03 0.  0.
         25    1    4    4    0    0 -0.21766238219E+01 -0.72093268778E+02  0.72554935246E+02  0.16159796974E+03  0.12509000000E+03 0.  0.
<mgrwt>
<rscale>  2 0.44282451E+03</rscale>
<asrwt>0</asrwt>
<pdfrwt beam="1">  1       21 0.37710120E-01 0.44282451E+03</pdfrwt>
<pdfrwt beam="2">  1       21 0.28114319E-01 0.44282451E+03</pdfrwt>
<totfact> 0.76230461E+04</totfact>
</mgrwt>
</event>
<event>
 7    0  0.4709932E-002  0.4335486E+03  0.7546771E-02  0.1032745E+00
         21   -1    0    0  502  501  0.00000000000E+00  0.00000000000E+00  0.85401989365E+02  0.85401989365E+02  0.00000000000E+00 0. -1.
         21   -1    0    0  501  502 -0.00000000000E+00 -0.00000000000E+00 -0.55023411086E+03  0.55023411086E+03  0.00000000000E+00 0. -1.
      99926    2    1    2    0    0 -0.53290705182E-14  0.00000000000E+00 -0.46483212150E+03  0.63563610023E+03  0.43354855638E+03 0.  0.
      99925    2    3    3    0    0  0.77109223707E+00  0.50792027854E+02 -0.41036936525E+03  0.49005408006E+03  0.26300106611E+03 0.  0.
         25    1    3    3    0    0 -0.77109223707E+00 -0.50792027854E+02 -0.54462756251E+02  0.14558202016E+03  0.12509000000E+03 0.  0.
         25    1    4    4    0    0  0.33099287067E+02  0.40540359857E+02 -0.24415702921E+03  0.27928345206E+03  0.12509000000E+03 0.  0.
         25    1    4    4    0    0 -0.32328194830E+02  0.10251667998E+02 -0.16621233603E+03  0.21077062800E+03  0.12509000000E+03 0.  0.
<mgrwt>
<rscale>  2 0.43354856E+03</rscale>
<asrwt>0</asrwt>
<pdfrwt beam="1">  1       21 0.12559116E-01 0.43354856E+03</pdfrwt>
<pdfrwt beam="2">  1       21 0.80916783E-01 0.43354856E+03</pdfrwt>
<totfact> 0.67209784E+04</totfact>
</mgrwt>
</event>
<event>
 7    0  0.4709932E-002  0.4526411E+03  0.7546771E-02  0.1026937E+00
         21   -1    0    0  502  501  0.00000000000E+00  0.00000000000E+00  0.16729733151E+04  0.16729733151E+04  0.00000000000E+00 0. -1.
         21   -1    0    0  501  502 -0.00000000000E+00 -0.00000000000E+00 -0.30616744767E+02  0.30616744767E+02  0.00000000000E+00 0. -1.
      99926    2    1    2    0    0  0.00000000000E+00  0.17763568394E-14  0.16423565703E+04  0.17035900598E+04  0.45264112491E+03 0.  0.
      99925    2    3    3    0    0  0.32391173161E+02  0.10296810656E+02  0.63694205411E+03  0.68985386640E+03  0.26276979333E+03 0.  0.
         25    1    4    4    0    0  0.29671576268E+02 -0.11600312907E+02  0.40928860960E+03  0.42916155903E+03  0.12509000000E+03 0.  0.
         25    1    4    4    0    0  0.27195968932E+01  0.21897123563E+02  0.22765344451E+03  0.26069230738E+03  0.12509000000E+03 0.  0.
         25    1    3    3    0    0 -0.32391173161E+02 -0.10296810656E+02  0.10054145162E+04  0.10137361934E+04  0.12509000000E+03 0.  0.
<mgrwt>
<rscale>  2 0.45264112E+03</rscale>
<asrwt>0</asrwt>
<pdfrwt beam="1">  1       21 0.24602543E+00 0.45264112E+03</pdfrwt>
<pdfrwt beam="2">  1       21 0.45024636E-02 0.45264112E+03</pdfrwt>
<totfact> 0.19542586E+04</totfact>
</mgrwt>
</event>
<event>
 7    0  0.4709932E-002  0.4541885E+03  0.7546771E-02  0.1026480E+00
         21   -1    0    0  502  501  0.00000000000E+00  0.00000000000E+00  0.49105790807E+02  0.49105790807E+02  0.00000000000E+00 0.  1.
         21   -1    0    0  501  502 -0.00000000000E+00 -0.00000000000E+00 -0.10502183261E+04  0.10502183261E+04  0.00000000000E+00 0.  1.
      99926    2    1    2    0    0  0.00000000000E+00  0.35527136788E-14 -0.10011125353E+04  0.10993241169E+04  0.45418851340E+03 0.  0.
      99925    2    3    3    0    0  0.73727416380E+02 -0.25715121711E+02 -0.82612953169E+03  0.87049326440E+03  0.26300479242E+03 0.  0.
         25    1    3    3    0    0 -0.73727416380E+02  0.25715121711E+02 -0.17498300364E+03  0.22883085254E+03  0.12509000000E+03 0.  0.
         25    1    4    4    0    0  0.31862550595E+02 -0.39853053215E+02 -0.51145426371E+03  0.52899570882E+03  0.12509000000E+03 0.  0.
         25    1    4    4    0    0  0.41864865785E+02  0.14137931504E+02 -0.31467526797E+03  0.34149755558E+03  0.12509000000E+03 0.  0.
<mgrwt>
<rscale>  2 0.45418851E+03</rscale>
<asrwt>0</asrwt>
<pdfrwt beam="1">  1       21 0.72214398E-02 0.45418851E+03</pdfrwt>
<pdfrwt beam="2">  1       21 0.15444387E+00 0.45418851E+03</pdfrwt>
<totfact> 0.35743421E+04</totfact>
</mgrwt>
</event>
<event>
 7    0  0.4709932E-002  0.4542511E+03  0.7546771E-02  0.1026462E+00
         21   -1    0    0  502  501  0.00000000000E+00  0.00000000000E+00  0.13902330840E+03  0.13902330840E+03  0.00000000000E+00 0. -1.
         21   -1    0    0  501  502 -0.00000000000E+00 -0.00000000000E+00 -0.37106022627E+03  0.37106022627E+03  0.00000000000E+00 0. -1.
      99926    2    1    2    0    0  0.00000000000E+00  0.00000000000E+00 -0.23203691787E+03  0.51008353468E+03  0.45425112118E+03 0.  0.
      99925    2    3    3    0    0 -0.83460218013E+02 -0.55157690247E+02 -0.20379225991E+03  0.34743899100E+03  0.26301062428E+03 0.  0.
         25    1    3    3    0    0  0.83460218013E+02  0.55157690247E+02 -0.28244657967E+02  0.16264454368E+03  0.12509000000E+03 0.  0.
         25    1    4    4    0    0 -0.74157956887E+02 -0.50168048811E+02 -0.13278746262E+03  0.20321479774E+03  0.12509000000E+03 0.  0.
         25    1    4    4    0    0 -0.93022611260E+01 -0.49896414361E+01 -0.71004797283E+02  0.14422419326E+03  0.12509000000E+03 0.  0.
<mgrwt>
<rscale>  2 0.45425112E+03</rscale>
<asrwt>0</asrwt>
<pdfrwt beam="1">  1       21 0.20444604E-01 0.45425112E+03</pdfrwt>
<pdfrwt beam="2">  1       21 0.54567680E-01 0.45425112E+03</pdfrwt>
<totfact> 0.64953084E+04</totfact>
</mgrwt>
</event>
<event>
 7    0  0.4709932E-002  0.4543514E+03  0.7546771E-02  0.1026432E+00
         21   -1    0    0  502  501  0.00000000000E+00  0.00000000000E+00  0.12550545718E+03  0.12550545718E+03  0.00000000000E+00 0.  1.
         21   -1    0    0  501  502 -0.00000000000E+00 -0.00000000000E+00 -0.41120752753E+03  0.41120752753E+03  0.00000000000E+00 0.  1.
      99926    2    1    2    0    0  0.88817841970E-15  0.00000000000E+00 -0.28570207034E+03  0.53671298471E+03  0.45435135629E+03 0.  0.
      99925    2    3    3    0    0  0.34164686507E+01  0.98329389270E+02 -0.11534462350E+03  0.30358317356E+03  0.26301714782E+03 0.  0.
         25    1    4    4    0    0  0.12944070727E+02  0.75554009106E+02 -0.28871179170E+02  0.14952260814E+03  0.12509000000E+03 0.  0.
         25    1    3    3    0    0 -0.34164686507E+01 -0.98329389270E+02 -0.17035744684E+03  0.23312981115E+03  0.12509000000E+03 0.  0.
         25    1    4    4    0    0 -0.95276020766E+01  0.22775380164E+02 -0.86473444327E+02  0.15406056542E+03  0.12509000000E+03 0.  0.
<mgrwt>
<rscale>  2 0.45435136E+03</rscale>
<asrwt>0</asrwt>
<pdfrwt beam="1">  1       21 0.18456685E-01 0.45435136E+03</pdfrwt>
<pdfrwt beam="2">  1       21 0.60471696E-01 0.45435136E+03</pdfrwt>
<totfact> 0.63076354E+04</totfact>
</mgrwt>
</event>
<event>
 7    0  0.4709932E-002  0.4333509E+03  0.7546771E-02  0.1032807E+00
         21   -1    0    0  502  501  0.00000000000E+00  0.00000000000E+00  0.50412814564E+02  0.50412814564E+02  0.00000000000E+00 0. -1.
         21   -1    0    0  501  502 -0.00000000000E+00 -0.00000000000E+00 -0.93127600518E+03  0.93127600518E+03  0.00000000000E+00 0. -1.
      99926    2    1    2    0    0  0.00000000000E+00  0.00000000000E+00 -0.88086319062E+03  0.98168881974E+03  0.43335087196E+03 0.  0.
      99925    2    3    3    0    0  0.25673704425E+02 -0.42418288346E+02 -0.73992323018E+03  0.78682981730E+03  0.26297590108E+03 0.  0.
         25    1    3    3    0    0 -0.25673704425E+02  0.42418288346E+02 -0.14093996044E+03  0.19485900244E+03  0.12509000000E+03 0.  0.
         25    1    4    4    0    0  0.15226241529E+02 -0.76810132746E+00 -0.25864133681E+03  0.28770693008E+03  0.12509000000E+03 0.  0.
         25    1    4    4    0    0  0.10447462896E+02 -0.41650187019E+02 -0.48128189337E+03  0.49912288722E+03  0.12509000000E+03 0.  0.
<mgrwt>
<rscale>  2 0.43335087E+03</rscale>
<asrwt>0</asrwt>
<pdfrwt beam="1">  1       21 0.74136497E-02 0.43335087E+03</pdfrwt>
<pdfrwt beam="2">  1       21 0.13695234E+00 0.43335087E+03</pdfrwt>
<totfact> 0.47411093E+04</totfact>
</mgrwt>
</event>
<event>
 7    0  0.4709932E-002  0.4527577E+03  0.7546771E-02  0.1026903E+00
         21   -1    0    0  502  501  0.00000000000E+00  0.00000000000E+00  0.13971000548E+03  0.13971000548E+03  0.00000000000E+00 0. -1.
         21   -1    0    0  501  502 -0.00000000000E+00 -0.00000000000E+00 -0.36681247465E+03  0.36681247465E+03  0.00000000000E+00 0. -1.
      99926    2    1    2    0    0  0.14210854715E-13  0.00000000000E+00 -0.22710246916E+03  0.50652248013E+03  0.45275765193E+03 0.  0.
      99925    2    3    3    0    0 -0.10488855797E+03 -0.28725106027E+02 -0.11838777917E+03  0.30829752401E+03  0.26306834805E+03 0.  0.
         25    1    4    4    0    0 -0.70034768435E+02 -0.50174589405E+02 -0.49534700688E+02  0.15976092415E+03  0.12509000000E+03 0.  0.
         25    1    4    4    0    0 -0.34853789536E+02  0.21449483379E+02 -0.68853078485E+02  0.14853659986E+03  0.12509000000E+03 0.  0.
         25    1    3    3    0    0  0.10488855797E+03  0.28725106027E+02 -0.10871468999E+03  0.19822495612E+03  0.12509000000E+03 0.  0.
<mgrwt>
<rscale>  2 0.45275765E+03</rscale>
<asrwt>0</asrwt>
<pdfrwt beam="1">  1       21 0.20545589E-01 0.45275765E+03</pdfrwt>
<pdfrwt beam="2">  1       21 0.53943010E-01 0.45275765E+03</pdfrwt>
<totfact> 0.65981295E+04</totfact>
</mgrwt>
</event>
<event>
 7    0  0.4709932E-002  0.4136855E+03  0.7546771E-02  0.1039141E+00
         21   -1    0    0  502  501  0.00000000000E+00  0.00000000000E+00  0.17571470511E+03  0.17571470511E+03  0.00000000000E+00 0. -1.
         21   -1    0    0  501  502 -0.00000000000E+00 -0.00000000000E+00 -0.24348514340E+03  0.24348514340E+03  0.00000000000E+00 0. -1.
      99926    2    1    2    0    0  0.00000000000E+00  0.00000000000E+00 -0.67770438288E+02  0.41919984851E+03  0.41368548522E+03 0.  0.
      99925    2    3    3    0    0 -0.61563063489E+02  0.23472936400E+02 -0.28822532699E+02  0.27255252675E+03  0.26289380350E+03 0.  0.
         25    1    4    4    0    0 -0.65271776386E+01  0.33652533179E+02 -0.38146489922E+02  0.13519526556E+03  0.12509000000E+03 0.  0.
         25    1    3    3    0    0  0.61563063489E+02 -0.23472936400E+02 -0.38947905589E+02  0.14664732176E+03  0.12509000000E+03 0.  0.
         25    1    4    4    0    0 -0.55035885850E+02 -0.10179596779E+02  0.93239572231E+01  0.13735726118E+03  0.12509000000E+03 0.  0.
<mgrwt>
<rscale>  2 0.41368549E+03</rscale>
<asrwt>0</asrwt>
<pdfrwt beam="1">  1       21 0.25840398E-01 0.41368549E+03</pdfrwt>
<pdfrwt beam="2">  1       21 0.35806638E-01 0.41368549E+03</pdfrwt>
<totfact> 0.10050759E+05</totfact>
</mgrwt>
</event>
<event>
 7    0  0.4709932E-002  0.4544536E+03  0.7546771E-02  0.1026402E+00
         21   -1    0    0  502  501  0.00000000000E+00  0.00000000000E+00  0.34806327794E+03  0.34806327794E+03  0.00000000000E+00 0. -1.
         21   -1    0    0  501  502 -0.00000000000E+00 -0.00000000000E+00 -0.14834087625E+03  0.14834087625E+03  0.00000000000E+00 0. -1.
      99926    2    1    2    0    0  0.00000000000E+00  0.00000000000E+00  0.19972240169E+03  0.49640415419E+03  0.45445356920E+03 0.  0.
      99925    2    3    3    0    0  0.11262657816E+03  0.61240594209E+01  0.12792591259E+03  0.31330720130E+03  0.26281954467E+03 0.  0.
         25    1    4    4    0    0  0.61659417848E+02  0.28208887617E+00  0.10854479107E+03  0.17672420081E+03  0.12509000000E+03 0.  0.
         25    1    4    4    0    0  0.50967160310E+02  0.58419705448E+01  0.19381121521E+02  0.13658300048E+03  0.12509000000E+03 0.  0.
         25    1    3    3    0    0 -0.11262657816E+03 -0.61240594209E+01  0.71796489098E+02  0.18309695289E+03  0.12509000000E+03 0.  0.
<mgrwt>
<rscale>  2 0.45445357E+03</rscale>
<asrwt>0</asrwt>
<pdfrwt beam="1">  1       21 0.51185776E-01 0.45445357E+03</pdfrwt>
<pdfrwt beam="2">  1       21 0.21814835E-01 0.45445357E+03</pdfrwt>
<totfact> 0.65809024E+04</totfact>
</mgrwt>
</event>
<event>
 7    0  0.4709932E-002  0.4481402E+03  0.7546771E-02  0.1028278E+00
         21   -1    0    0  502  501  0.00000000000E+00  0.00000000000E+00  0.17149856074E+03  0.17149856074E+03  0.00000000000E+00 0. -1.
         21   -1    0    0  501  502 -0.00000000000E+00 -0.00000000000E+00 -0.29275699839E+03  0.29275699839E+03  0.00000000000E+00 0. -1.
      99926    2    1    2    0    0  0.00000000000E+00  0.00000000000E+00 -0.12125843765E+03  0.46425555913E+03  0.44814017392E+03 0.  0.
      99925    2    3    3    0    0  0.50479517379E+02 -0.62129721179E+02 -0.38555957849E+01  0.27494306797E+03  0.26300292979E+03 0.  0.
         25    1    4    4    0    0 -0.93798000547E+01 -0.15747609553E+02 -0.19353035300E+02  0.12789845946E+03  0.12509000000E+03 0.  0.
         25    1    3    3    0    0 -0.50479517379E+02  0.62129721179E+02 -0.11740284187E+03  0.18931249115E+03  0.12509000000E+03 0.  0.
         25    1    4    4    0    0  0.59859317434E+02 -0.46382111626E+02  0.15497439515E+02  0.14704460852E+03  0.12509000000E+03 0.  0.
<mgrwt>
<rscale>  2 0.44814017E+03</rscale>
<asrwt>0</asrwt>
<pdfrwt beam="1">  1       21 0.25220377E-01 0.44814017E+03</pdfrwt>
<pdfrwt beam="2">  1       21 0.43052499E-01 0.44814017E+03</pdfrwt>
<totfact> 0.71687764E+04</totfact>
</mgrwt>
</event>
<event>
 7    0  0.4709932E-002  0.4540302E+03  0.7546771E-02  0.1026527E+00
         21   -1    0    0  502  501  0.00000000000E+00  0.00000000000E+00  0.51074601295E+02  0.51074601295E+02  0.00000000000E+00 0.  1.
         21   -1    0    0  501  502 -0.00000000000E+00 -0.00000000000E+00 -0.10090310217E+04  0.10090310217E+04  0.00000000000E+00 0.  1.
      99926    2    1    2    0    0  0.00000000000E+00  0.00000000000E+00 -0.95795642042E+03  0.10601056230E+04  0.45403020661E+03 0.  0.
      99925    2    3    3    0    0 -0.53758830876E+02  0.29064124362E+02 -0.38323839866E+03  0.46876557883E+03  0.26293490157E+03 0.  0.
         25    1    3    3    0    0  0.53758830876E+02 -0.29064124362E+02 -0.57471802175E+03  0.59134004418E+03  0.12509000000E+03 0.  0.
         25    1    4    4    0    0  0.98538394620E+01  0.17184420058E+02 -0.15012998680E+03  0.19641518140E+03  0.12509000000E+03 0.  0.
         25    1    4    4    0    0 -0.63612670338E+02  0.11879704304E+02 -0.23310841186E+03  0.27235039743E+03  0.12509000000E+03 0.  0.
<mgrwt>
<rscale>  2 0.45403021E+03</rscale>
<asrwt>0</asrwt>
<pdfrwt beam="1">  1       21 0.75109708E-02 0.45403021E+03</pdfrwt>
<pdfrwt beam="2">  1       21 0.14838691E+00 0.45403021E+03</pdfrwt>
<totfact> 0.37189432E+04</totfact>
</mgrwt>
</event>
<event>
 7    0  0.4709932E-002  0.4566468E+03  0.7546771E-02  0.1025758E+00
         21   -1    0    0  502  501  0.00000000000E+00  0.00000000000E+00  0.46330532231E+03  0.46330532231E+03  0.00000000000E+00 0. -1.
         21   -1    0    0  501  502 -0.00000000000E+00 -0.00000000000E+00 -0.11252101524E+03  0.11252101524E+03  0.00000000000E+00 0. -1.
      99926    2    1    2    0    0  0.00000000000E+00  0.00000000000E+00  0.35078430707E+03  0.57582633755E+03  0.45664684486E+03 0.  0.
      99925    2    3    3    0    0 -0.90126565627E+02  0.43990011180E+02  0.14984401680E+03  0.31876131217E+03  0.26286427268E+03 0.  0.
         25    1    4    4    0    0 -0.73864494419E+02  0.52465151849E+02  0.91485828928E+02  0.17951523804E+03  0.12509000000E+03 0.  0.
         25    1    4    4    0    0 -0.16262071208E+02 -0.84751406690E+01  0.58358187867E+02  0.13924607413E+03  0.12509000000E+03 0.  0.
         25    1    3    3    0    0  0.90126565627E+02 -0.43990011180E+02  0.20094029027E+03  0.25706502538E+03  0.12509000000E+03 0.  0.
<mgrwt>
<rscale>  2 0.45664684E+03</rscale>
<asrwt>0</asrwt>
<pdfrwt beam="1">  1       21 0.68133135E-01 0.45664684E+03</pdfrwt>
<pdfrwt beam="2">  1       21 0.16547208E-01 0.45664684E+03</pdfrwt>
<totfact> 0.59414033E+04</totfact>
</mgrwt>
</event>
<event>
 7    0  0.4709932E-002  0.4459276E+03  0.7546771E-02  0.1028943E+00
         21   -1    0    0  502  501  0.00000000000E+00  0.00000000000E+00  0.44962097927E+03  0.44962097927E+03  0.00000000000E+00 0.  1.
         21   -1    0    0  501  502 -0.00000000000E+00 -0.00000000000E+00 -0.11056613449E+03  0.11056613449E+03  0.00000000000E+00 0.  1.
      99926    2    1    2    0    0  0.00000000000E+00  0.00000000000E+00  0.33905484478E+03  0.56018711376E+03  0.44592758903E+03 0.  0.
      99925    2    3    3    0    0  0.49615582493E+02  0.27234724602E+02  0.10526164719E+03  0.28905946193E+03  0.26319559630E+03 0.  0.
         25    1    4    4    0    0  0.60037959881E+02 -0.17996417014E+01  0.70338692727E+02  0.15557260405E+03  0.12509000000E+03 0.  0.
         25    1    3    3    0    0 -0.49615582493E+02 -0.27234724602E+02  0.23379319759E+03  0.27112765184E+03  0.12509000000E+03 0.  0.
         25    1    4    4    0    0 -0.10422377388E+02  0.29034366304E+02  0.34922954462E+02  0.13348685788E+03  0.12509000000E+03 0.  0.
<mgrwt>
<rscale>  2 0.44592759E+03</rscale>
<asrwt>0</asrwt>
<pdfrwt beam="1">  1       21 0.66120732E-01 0.44592759E+03</pdfrwt>
<pdfrwt beam="2">  1       21 0.16259726E-01 0.44592759E+03</pdfrwt>
<totfact> 0.65794122E+04</totfact>
</mgrwt>
</event>
<event>
 7    0  0.4709932E-002  0.4536624E+03  0.7546771E-02  0.1026635E+00
         21   -1    0    0  502  501  0.00000000000E+00  0.00000000000E+00  0.42034759764E+03  0.42034759764E+03  0.00000000000E+00 0.  1.
         21   -1    0    0  501  502 -0.00000000000E+00 -0.00000000000E+00 -0.12240441549E+03  0.12240441549E+03  0.00000000000E+00 0.  1.
      99926    2    1    2    0    0  0.00000000000E+00  0.00000000000E+00  0.29794318215E+03  0.54275201313E+03  0.45366243834E+03 0.  0.
      99925    2    3    3    0    0 -0.10060206554E+03 -0.37701565297E+02  0.14949903357E+03  0.32088413135E+03  0.26282024484E+03 0.  0.
         25    1    4    4    0    0 -0.34911216009E+02 -0.55957233722E+02  0.77599228852E+02  0.16130453629E+03  0.12509000000E+03 0.  0.
         25    1    4    4    0    0 -0.65690849526E+02  0.18255668424E+02  0.71899804715E+02  0.15957959506E+03  0.12509000000E+03 0.  0.
         25    1    3    3    0    0  0.10060206554E+03  0.37701565297E+02  0.14844414858E+03  0.22186788178E+03  0.12509000000E+03 0.  0.
<mgrwt>
<rscale>  2 0.45366244E+03</rscale>
<asrwt>0</asrwt>
<pdfrwt beam="1">  1       21 0.61815823E-01 0.45366244E+03</pdfrwt>
<pdfrwt beam="2">  1       21 0.18000650E-01 0.45366244E+03</pdfrwt>
<totfact> 0.63012337E+04</totfact>
</mgrwt>
</event>
<event>
 7    0  0.4709932E-002  0.4585685E+03  0.7546771E-02  0.1025197E+00
         21   -1    0    0  502  501  0.00000000000E+00  0.00000000000E+00  0.13418497793E+03  0.13418497793E+03  0.00000000000E+00 0.  1.
         21   -1    0    0  501  502 -0.00000000000E+00 -0.00000000000E+00 -0.39178208650E+03  0.39178208650E+03  0.00000000000E+00 0.  1.
      99926    2    1    2    0    0  0.14210854715E-13 -0.14210854715E-13 -0.25759710857E+03  0.52596706442E+03  0.45856851453E+03 0.  0.
      99925    2    3    3    0    0  0.91527422053E+02 -0.69904974700E+02 -0.14128063643E+03  0.31995491850E+03  0.26295809014E+03 0.  0.
         25    1    3    3    0    0 -0.91527422053E+02  0.69904974700E+02 -0.11631647214E+03  0.20601214592E+03  0.12509000000E+03 0.  0.
         25    1    4    4    0    0  0.46706532471E+02 -0.19373632106E+01 -0.94318970470E+02  0.16348954047E+03  0.12509000000E+03 0.  0.
         25    1    4    4    0    0  0.44820889582E+02 -0.67967611489E+02 -0.46961665956E+02  0.15646537804E+03  0.12509000000E+03 0.  0.
<mgrwt>
<rscale>  2 0.45856851E+03</rscale>
<asrwt>0</asrwt>
<pdfrwt beam="1">  1       21 0.19733085E-01 0.45856851E+03</pdfrwt>
<pdfrwt beam="2">  1       21 0.57615013E-01 0.45856851E+03</pdfrwt>
<totfact> 0.61715858E+04</totfact>
</mgrwt>
</event>
<event>
 7    0  0.4709932E-002  0.4449522E+03  0.7546771E-02  0.1029238E+00
         21   -1    0    0  502  501  0.00000000000E+00  0.00000000000E+00  0.64389463929E+03  0.64389463929E+03  0.00000000000E+00 0. -1.
         21   -1    0    0  501  502 -0.00000000000E+00 -0.00000000000E+00 -0.76869135850E+02  0.76869135850E+02  0.00000000000E+00 0. -1.
      99926    2    1    2    0    0  0.00000000000E+00  0.17763568394E-14  0.56702550345E+03  0.72076377514E+03  0.44495224239E+03 0.  0.
      99925    2    3    3    0    0 -0.37236823142E+02 -0.15034195692E+02  0.51458051912E+03  0.57930497366E+03  0.26303713389E+03 0.  0.
         25    1    4    4    0    0 -0.14896720290E+02  0.21237201039E+02  0.19104219614E+03  0.22982071227E+03  0.12509000000E+03 0.  0.
         25    1    3    3    0    0  0.37236823142E+02  0.15034195692E+02  0.52444984321E+02  0.14145880149E+03  0.12509000000E+03 0.  0.
         25    1    4    4    0    0 -0.22340102852E+02 -0.36271396731E+02  0.32353832298E+03  0.34948426138E+03  0.12509000000E+03 0.  0.
<mgrwt>
<rscale>  2 0.44495224E+03</rscale>
<asrwt>0</asrwt>
<pdfrwt beam="1">  1       21 0.94690385E-01 0.44495224E+03</pdfrwt>
<pdfrwt beam="2">  1       21 0.11304285E-01 0.44495224E+03</pdfrwt>
<totfact> 0.56093403E+04</totfact>
</mgrwt>
</event>
<event>
 7    0  0.4709932E-002  0.4553710E+03  0.7546771E-02  0.1026132E+00
         21   -1    0    0  502  501  0.00000000000E+00  0.00000000000E+00  0.63919833759E+03  0.63919833759E+03  0.00000000000E+00 0.  1.
         21   -1    0    0  501  502 -0.00000000000E+00 -0.00000000000E+00 -0.81102648920E+02  0.81102648920E+02  0.00000000000E+00 0.  1.
      99926    2    1    2    0    0  0.00000000000E+00  0.35527136788E-14  0.55809568867E+03  0.72030098651E+03  0.45537096246E+03 0.  0.
      99925    2    3    3    0    0  0.11218134372E+03  0.15542279639E+02  0.36580335566E+03  0.46446888185E+03  0.26285553231E+03 0.  0.
         25    1    3    3    0    0 -0.11218134372E+03 -0.15542279639E+02  0.19229233301E+03  0.25583210465E+03  0.12509000000E+03 0.  0.
         25    1    4    4    0    0  0.86348624905E+02 -0.19607780210E+02  0.20955989581E+03  0.25962166338E+03  0.12509000000E+03 0.  0.
         25    1    4    4    0    0  0.25832718820E+02  0.35150059850E+02  0.15624345985E+03  0.20484721847E+03  0.12509000000E+03 0.  0.
<mgrwt>
<rscale>  2 0.45537096E+03</rscale>
<asrwt>0</asrwt>
<pdfrwt beam="1">  1       21 0.93999753E-01 0.45537096E+03</pdfrwt>
<pdfrwt beam="2">  1       21 0.11926860E-01 0.45537096E+03</pdfrwt>
<totfact> 0.51663698E+04</totfact>
</mgrwt>
</event>
<event>
 7    0  0.4709932E-002  0.4527107E+03  0.7546771E-02  0.1026917E+00
         21   -1    0    0  502  501  0.00000000000E+00  0.00000000000E+00  0.30843675772E+03  0.30843675772E+03  0.00000000000E+00 0.  1.
         21   -1    0    0  501  502 -0.00000000000E+00 -0.00000000000E+00 -0.16611750155E+03  0.16611750155E+03  0.00000000000E+00 0.  1.
      99926    2    1    2    0    0  0.00000000000E+00  0.00000000000E+00  0.14231925617E+03  0.47455425928E+03  0.45271069605E+03 0.  0.
      99925    2    3    3    0    0  0.77490932859E+02  0.40693018994E+02  0.16113731091E+03  0.32072840399E+03  0.26313629489E+03 0.  0.
         25    1    4    4    0    0  0.30322675269E+02  0.59829331174E+02  0.74837881283E+02  0.16045943437E+03  0.12509000000E+03 0.  0.
         25    1    4    4    0    0  0.47168257590E+02 -0.19136312180E+02  0.86299429630E+02  0.16026896962E+03  0.12509000000E+03 0.  0.
         25    1    3    3    0    0 -0.77490932859E+02 -0.40693018994E+02 -0.18818054744E+02  0.15382585529E+03  0.12509000000E+03 0.  0.
<mgrwt>
<rscale>  2 0.45271070E+03</rscale>
<asrwt>0</asrwt>
<pdfrwt beam="1">  1       21 0.45358347E-01 0.45271070E+03</pdfrwt>
<pdfrwt beam="2">  1       21 0.24429044E-01 0.45271070E+03</pdfrwt>
<totfact> 0.68331755E+04</totfact>
</mgrwt>
</event>
<event>
 7    0  0.4709932E-002  0.4575412E+03  0.7546771E-02  0.1025497E+00
         21   -1    0    0  502  501  0.00000000000E+00  0.00000000000E+00  0.15238865035E+03  0.15238865035E+03  0.00000000000E+00 0. -1.
         21   -1    0    0  501  502 -0.00000000000E+00 -0.00000000000E+00 -0.34343759635E+03  0.34343759635E+03  0.00000000000E+00 0. -1.
      99926    2    1    2    0    0  0.00000000000E+00  0.14210854715E-13 -0.19104894600E+03  0.49582624670E+03  0.45754121907E+03 0.  0.
      99925    2    3    3    0    0 -0.47887697261E+02 -0.10061307582E+03 -0.86776746042E+02  0.29850310473E+03  0.26297847308E+03 0.  0.
         25    1    3    3    0    0  0.47887697261E+02  0.10061307582E+03 -0.10427219996E+03  0.19732314197E+03  0.12509000000E+03 0.  0.
         25    1    4    4    0    0  0.12276022341E+01 -0.16280895403E+02 -0.49585231977E+02  0.13554622050E+03  0.12509000000E+03 0.  0.
         25    1    4    4    0    0 -0.49115299495E+02 -0.84332180416E+02 -0.37191514066E+02  0.16295688423E+03  0.12509000000E+03 0.  0.
<mgrwt>
<rscale>  2 0.45754122E+03</rscale>
<asrwt>0</asrwt>
<pdfrwt beam="1">  1       21 0.22410096E-01 0.45754122E+03</pdfrwt>
<pdfrwt beam="2">  1       21 0.50505528E-01 0.45754122E+03</pdfrwt>
<totfact> 0.64258732E+04</totfact>
</mgrwt>
</event>
<event>
 7    0  0.4709932E-002  0.4399194E+03  0.7546771E-02  0.1030772E+00
         21   -1    0    0  502  501  0.00000000000E+00  0.00000000000E+00  0.94724680683E+02  0.94724680683E+02  0.00000000000E+00 0. -1.
         21   -1    0    0  501  502 -0.00000000000E+00 -0.00000000000E+00 -0.51076740837E+03  0.51076740837E+03  0.00000000000E+00 0. -1.
      99926    2    1    2    0    0  0.00000000000E+00 -0.71054273576E-14 -0.41604272769E+03  0.60549208906E+03  0.43991944563E+03 0.  0.
      99925    2    3    3    0    0 -0.20191590559E+02 -0.34811469665E+02 -0.14175735213E+03  0.30135476136E+03  0.26286880105E+03 0.  0.
         25    1    4    4    0    0 -0.14988557729E+02 -0.57841601875E+02 -0.73032302487E+02  0.15668928833E+03  0.12509000000E+03 0.  0.
         25    1    4    4    0    0 -0.52030328297E+01  0.23030132210E+02 -0.68725049642E+02  0.14466547304E+03  0.12509000000E+03 0.  0.
         25    1    3    3    0    0  0.20191590559E+02  0.34811469665E+02 -0.27428537556E+03  0.30413732769E+03  0.12509000000E+03 0.  0.
<mgrwt>
<rscale>  2 0.43991945E+03</rscale>
<asrwt>0</asrwt>
<pdfrwt beam="1">  1       21 0.13930100E-01 0.43991945E+03</pdfrwt>
<pdfrwt beam="2">  1       21 0.75112854E-01 0.43991945E+03</pdfrwt>
<totfact> 0.65841331E+04</totfact>
</mgrwt>
</event>
<event>
 7    0  0.4709932E-002  0.4421740E+03  0.7546771E-02  0.1030082E+00
         21   -1    0    0  502  501  0.00000000000E+00  0.00000000000E+00  0.92233528508E+03  0.92233528508E+03  0.00000000000E+00 0.  1.
         21   -1    0    0  501  502 -0.00000000000E+00 -0.00000000000E+00 -0.52995329084E+02  0.52995329084E+02  0.00000000000E+00 0.  1.
      99926    2    1    2    0    0  0.00000000000E+00  0.00000000000E+00  0.86933995599E+03  0.97533061416E+03  0.44217400176E+03 0.  0.
      99925    2    3    3    0    0  0.90930639189E+02  0.43088288932E+02  0.55490396180E+03  0.62228318911E+03  0.26304558322E+03 0.  0.
         25    1    4    4    0    0  0.13023462350E+02  0.10356248969E+02  0.30852958194E+03  0.33333897686E+03  0.12509000000E+03 0.  0.
         25    1    4    4    0    0  0.77907176839E+02  0.32732039963E+02  0.24637437986E+03  0.28894421225E+03  0.12509000000E+03 0.  0.
         25    1    3    3    0    0 -0.90930639189E+02 -0.43088288932E+02  0.31443599420E+03  0.35304742505E+03  0.12509000000E+03 0.  0.
<mgrwt>
<rscale>  2 0.44217400E+03</rscale>
<asrwt>0</asrwt>
<pdfrwt beam="1">  1       21 0.13563753E+00 0.44217400E+03</pdfrwt>
<pdfrwt beam="2">  1       21 0.77934313E-02 0.44217400E+03</pdfrwt>
<totfact> 0.44421129E+04</totfact>
</mgrwt>
</event>
<event>
 7    0  0.4709932E-002  0.4555329E+03  0.7546771E-02  0.1026085E+00
         21   -1    0    0  502  501  0.00000000000E+00  0.00000000000E+00  0.24450800152E+04  0.24450800152E+04  0.00000000000E+00 0. -1.
         21   -1    0    0  501  502 -0.00000000000E+00 -0.00000000000E+00 -0.21217123937E+02  0.21217123937E+02  0.00000000000E+00 0. -1.
      99926    2    1    2    0    0  0.00000000000E+00  0.00000000000E+00  0.24238628912E+04  0.24662971391E+04  0.45553294379E+03 0.  0.
      99925    2    3    3    0    0  0.60897690222E+00 -0.99600139710E+02  0.18209001126E+04  0.18424925390E+04  0.26302276949E+03 0.  0.
         25    1    4    4    0    0  0.12101988794E+02 -0.10724680564E+02  0.90705363767E+03  0.91578124387E+03  0.12509000000E+03 0.  0.
         25    1    4    4    0    0 -0.11493011892E+02 -0.88875459146E+02  0.91384647496E+03  0.92671129510E+03  0.12509000000E+03 0.  0.
         25    1    3    3    0    0 -0.60897690222E+00  0.99600139710E+02  0.60296277860E+03  0.62380460014E+03  0.12509000000E+03 0.  0.
<mgrwt>
<rscale>  2 0.45553294E+03</rscale>
<asrwt>0</asrwt>
<pdfrwt beam="1">  1       21 0.35957040E+00 0.45553294E+03</pdfrwt>
<pdfrwt beam="2">  1       21 0.31201670E-02 0.45553294E+03</pdfrwt>
<totfact> 0.74519396E+03</totfact>
</mgrwt>
</event>
<event>
 7    0  0.4709932E-002  0.4547998E+03  0.7546771E-02  0.1026300E+00
         21   -1    0    0  502  501  0.00000000000E+00  0.00000000000E+00  0.44043820206E+03  0.44043820206E+03  0.00000000000E+00 0. -1.
         21   -1    0    0  501  502 -0.00000000000E+00 -0.00000000000E+00 -0.11740740211E+03  0.11740740211E+03  0.00000000000E+00 0. -1.
      99926    2    1    2    0    0  0.71054273576E-14  0.00000000000E+00  0.32303079995E+03  0.55784560416E+03  0.45479975854E+03 0.  0.
      99925    2    3    3    0    0 -0.63084025740E+02  0.37636581189E+02  0.98782415259E+02  0.29076705264E+03  0.26342248725E+03 0.  0.
         25    1    3    3    0    0  0.63084025740E+02 -0.37636581189E+02  0.22424838470E+03  0.26707855153E+03  0.12509000000E+03 0.  0.
         25    1    4    4    0    0 -0.23650343143E+01  0.28064537799E+01  0.18591822006E+02  0.12651732496E+03  0.12509000000E+03 0.  0.
         25    1    4    4    0    0 -0.60718991426E+02  0.34830127409E+02  0.80190593253E+02  0.16424972768E+03  0.12509000000E+03 0.  0.
<mgrwt>
<rscale>  2 0.45479976E+03</rscale>
<asrwt>0</asrwt>
<pdfrwt beam="1">  1       21 0.64770323E-01 0.45479976E+03</pdfrwt>
<pdfrwt beam="2">  1       21 0.17265795E-01 0.45479976E+03</pdfrwt>
<totfact> 0.61448301E+04</totfact>
</mgrwt>
</event>
<event>
 7    0  0.4709932E-002  0.4440473E+03  0.7546771E-02  0.1029512E+00
         21   -1    0    0  502  501  0.00000000000E+00  0.00000000000E+00  0.37664035241E+03  0.37664035241E+03  0.00000000000E+00 0. -1.
         21   -1    0    0  501  502 -0.00000000000E+00 -0.00000000000E+00 -0.13087951985E+03  0.13087951985E+03  0.00000000000E+00 0. -1.
      99926    2    1    2    0    0  0.00000000000E+00  0.00000000000E+00  0.24576083256E+03  0.50751987227E+03  0.44404733298E+03 0.  0.
      99925    2    3    3    0    0 -0.39261195641E+02 -0.91999353524E+02  0.13461337207E+03  0.31256708669E+03  0.26376523882E+03 0.  0.
         25    1    4    4    0    0 -0.31352844093E+02 -0.71661906756E+02  0.10797558142E+03  0.18282413406E+03  0.12509000000E+03 0.  0.
         25    1    3    3    0    0  0.39261195641E+02  0.91999353524E+02  0.11114746049E+03  0.19495278558E+03  0.12509000000E+03 0.  0.
         25    1    4    4    0    0 -0.79083515476E+01 -0.20337446768E+02  0.26637790650E+02  0.12974295263E+03  0.12509000000E+03 0.  0.
<mgrwt>
<rscale>  2 0.44404733E+03</rscale>
<asrwt>0</asrwt>
<pdfrwt beam="1">  1       21 0.55388287E-01 0.44404733E+03</pdfrwt>
<pdfrwt beam="2">  1       21 0.19246988E-01 0.44404733E+03</pdfrwt>
<totfact> 0.70692731E+04</totfact>
</mgrwt>
</event>
<event>
 7    0  0.4709932E-002  0.4580552E+03  0.7546771E-02  0.1025347E+00
         21   -1    0    0  502  501  0.00000000000E+00  0.00000000000E+00  0.18397325100E+03  0.18397325100E+03  0.00000000000E+00 0. -1.
         21   -1    0    0  501  502 -0.00000000000E+00 -0.00000000000E+00 -0.28511555430E+03  0.28511555430E+03  0.00000000000E+00 0. -1.
      99926    2    1    2    0    0  0.14210854715E-13  0.14210854715E-13 -0.10114230329E+03  0.46908880530E+03  0.45805517325E+03 0.  0.
      99925    2    3    3    0    0 -0.58538775169E+02 -0.85680971384E+02 -0.10366624185E+02  0.28292825880E+03  0.26300744415E+03 0.  0.
         25    1    3    3    0    0  0.58538775169E+02  0.85680971384E+02 -0.90775679108E+02  0.18616054650E+03  0.12509000000E+03 0.  0.
         25    1    4    4    0    0 -0.75567394815E+01 -0.50929023120E+02 -0.38492975684E+02  0.14064169718E+03  0.12509000000E+03 0.  0.
         25    1    4    4    0    0 -0.50982035688E+02 -0.34751948263E+02  0.28126351499E+02  0.14228656163E+03  0.12509000000E+03 0.  0.
<mgrwt>
<rscale>  2 0.45805517E+03</rscale>
<asrwt>0</asrwt>
<pdfrwt beam="1">  1       21 0.27054890E-01 0.45805517E+03</pdfrwt>
<pdfrwt beam="2">  1       21 0.41928758E-01 0.45805517E+03</pdfrwt>
<totfact> 0.65892537E+04</totfact>
</mgrwt>
</event>
<event>
 7    0  0.4709932E-002  0.4549311E+03  0.7546771E-02  0.1026262E+00
         21   -1    0    0  502  501  0.00000000000E+00  0.00000000000E+00  0.13598469392E+03  0.13598469392E+03  0.00000000000E+00 0. -1.
         21   -1    0    0  501  502 -0.00000000000E+00 -0.00000000000E+00 -0.38048826936E+03  0.38048826936E+03  0.00000000000E+00 0. -1.
      99926    2    1    2    0    0  0.00000000000E+00  0.71054273576E-14 -0.24450357544E+03  0.51647296328E+03  0.45493111939E+03 0.  0.
      99925    2    3    3    0    0 -0.69875699450E+02  0.57512526583E+02 -0.76855030501E+02  0.28856103553E+03  0.26300279737E+03 0.  0.
         25    1    4    4    0    0 -0.74337961241E+02  0.32958241335E+02 -0.27063874478E+02  0.15163225104E+03  0.12509000000E+03 0.  0.
         25    1    4    4    0    0  0.44622617907E+01  0.24554285248E+02 -0.49791156023E+02  0.13692878449E+03  0.12509000000E+03 0.  0.
         25    1    3    3    0    0  0.69875699450E+02 -0.57512526583E+02 -0.16764854494E+03  0.22791192775E+03  0.12509000000E+03 0.  0.
<mgrwt>
<rscale>  2 0.45493112E+03</rscale>
<asrwt>0</asrwt>
<pdfrwt beam="1">  1       21 0.19997749E-01 0.45493112E+03</pdfrwt>
<pdfrwt beam="2">  1       21 0.55954157E-01 0.45493112E+03</pdfrwt>
<totfact> 0.64163271E+04</totfact>
</mgrwt>
</event>
<event>
 7    0  0.4709932E-002  0.4478207E+03  0.7546771E-02  0.1028374E+00
         21   -1    0    0  502  501  0.00000000000E+00  0.00000000000E+00  0.37791310601E+03  0.37791310601E+03  0.00000000000E+00 0.  1.
         21   -1    0    0  501  502 -0.00000000000E+00 -0.00000000000E+00 -0.13266499928E+03  0.13266499928E+03  0.00000000000E+00 0.  1.
      99926    2    1    2    0    0 -0.53290705182E-14  0.00000000000E+00  0.24524810672E+03  0.51057810529E+03  0.44782068705E+03 0.  0.
      99925    2    3    3    0    0  0.60276558118E+01 -0.69281734436E+02  0.64469023395E+02  0.28000300596E+03  0.26345613868E+03 0.  0.
         25    1    4    4    0    0 -0.36119568216E+02 -0.21654306474E+02  0.36076266812E+02  0.13683032312E+03  0.12509000000E+03 0.  0.
         25    1    4    4    0    0  0.42147224028E+02 -0.47627427962E+02  0.28392756583E+02  0.14317268285E+03  0.12509000000E+03 0.  0.
         25    1    3    3    0    0 -0.60276558118E+01  0.69281734436E+02  0.18077908333E+03  0.23057509933E+03  0.12509000000E+03 0.  0.
<mgrwt>
<rscale>  2 0.44782069E+03</rscale>
<asrwt>0</asrwt>
<pdfrwt beam="1">  1       21 0.55575457E-01 0.44782069E+03</pdfrwt>
<pdfrwt beam="2">  1       21 0.19509559E-01 0.44782069E+03</pdfrwt>
<totfact> 0.68345056E+04</totfact>
</mgrwt>
</event>
<event>
 7    0  0.4709932E-002  0.4554575E+03  0.7546771E-02  0.1026107E+00
         21   -1    0    0  502  501  0.00000000000E+00  0.00000000000E+00  0.61092694896E+02  0.61092694896E+02  0.00000000000E+00 0.  1.
         21   -1    0    0  501  502 -0.00000000000E+00 -0.00000000000E+00 -0.84888041426E+03  0.84888041426E+03  0.00000000000E+00 0.  1.
      99926    2    1    2    0    0  0.00000000000E+00  0.00000000000E+00 -0.78778771937E+03  0.90997310916E+03  0.45545753765E+03 0.  0.
      99925    2    3    3    0    0  0.69478497822E+02  0.89947872488E+02 -0.48712707042E+03  0.56506411340E+03  0.26284365714E+03 0.  0.
         25    1    3    3    0    0 -0.69478497822E+02 -0.89947872488E+02 -0.30066064895E+03  0.34490899576E+03  0.12509000000E+03 0.  0.
         25    1    4    4    0    0  0.38268946451E+01  0.46740343891E+02 -0.28446563428E+03  0.31427298652E+03  0.12509000000E+03 0.  0.
         25    1    4    4    0    0  0.65651603177E+02  0.43207528597E+02 -0.20266143613E+03  0.25079112688E+03  0.12509000000E+03 0.  0.
<mgrwt>
<rscale>  2 0.45545754E+03</rscale>
<asrwt>0</asrwt>
<pdfrwt beam="1">  1       21 0.89842204E-02 0.45545754E+03</pdfrwt>
<pdfrwt beam="2">  1       21 0.12483535E+00 0.45545754E+03</pdfrwt>
<totfact> 0.42652371E+04</totfact>
</mgrwt>
</event>
<event>
 7    0  0.4709932E-002  0.4521882E+03  0.7546771E-02  0.1027072E+00
         21   -1    0    0  502  501  0.00000000000E+00  0.00000000000E+00  0.24085151573E+03  0.24085151573E+03  0.00000000000E+00 0.  1.
         21   -1    0    0  501  502 -0.00000000000E+00 -0.00000000000E+00 -0.21224087774E+03  0.21224087774E+03  0.00000000000E+00 0.  1.
      99926    2    1    2    0    0  0.00000000000E+00 -0.14210854715E-13  0.28610637984E+02  0.45309239347E+03  0.45218817810E+03 0.  0.
      99925    2    3    3    0    0 -0.86683850525E+02 -0.67306222869E+02  0.57266069047E+01  0.28511797709E+03  0.26308791165E+03 0.  0.
         25    1    3    3    0    0  0.86683850525E+02  0.67306222869E+02  0.22884031079E+02  0.16797441638E+03  0.12509000000E+03 0.  0.
         25    1    4    4    0    0 -0.18943655518E+02 -0.11182961115E+02  0.29409344549E+02  0.13037000556E+03  0.12509000000E+03 0.  0.
         25    1    4    4    0    0 -0.67740195007E+02 -0.56123261754E+02 -0.23682737644E+02  0.15474797153E+03  0.12509000000E+03 0.  0.
<mgrwt>
<rscale>  2 0.45218818E+03</rscale>
<asrwt>0</asrwt>
<pdfrwt beam="1">  1       21 0.35419340E-01 0.45218818E+03</pdfrwt>
<pdfrwt beam="2">  1       21 0.31211894E-01 0.45218818E+03</pdfrwt>
<totfact> 0.70248650E+04</totfact>
</mgrwt>
</event>
<event>
 7    0  0.4709932E-002  0.4571225E+03  0.7546771E-02  0.1025619E+00
         21   -1    0    0  502  501  0.00000000000E+00  0.00000000000E+00  0.28020038061E+03  0.28020038061E+03  0.00000000000E+00 0.  1.
         21   -1    0    0  501  502 -0.00000000000E+00 -0.00000000000E+00 -0.18643889581E+03  0.18643889581E+03  0.00000000000E+00 0.  1.
      99926    2    1    2    0    0  0.00000000000E+00 -0.35527136788E-14  0.93761484794E+02  0.46663927642E+03  0.45712251997E+03 0.  0.
      99925    2    3    3    0    0  0.72115344928E+02  0.22263253626E+02  0.14771714670E+03  0.31089911786E+03  0.26294796181E+03 0.  0.
         25    1    3    3    0    0 -0.72115344928E+02 -0.22263253626E+02 -0.53955661909E+02  0.15574015856E+03  0.12509000000E+03 0.  0.
         25    1    4    4    0    0  0.42245343751E+02 -0.27743886969E+02  0.83851724115E+02  0.15884902288E+03  0.12509000000E+03 0.  0.
         25    1    4    4    0    0  0.29870001177E+02  0.50007140595E+02  0.63865422587E+02  0.15205009498E+03  0.12509000000E+03 0.  0.
<mgrwt>
<rscale>  2 0.45712252E+03</rscale>
<asrwt>0</asrwt>
<pdfrwt beam="1">  1       21 0.41205938E-01 0.45712252E+03</pdfrwt>
<pdfrwt beam="2">  1       21 0.27417485E-01 0.45712252E+03</pdfrwt>
<totfact> 0.66558657E+04</totfact>
</mgrwt>
</event>
<event>
 6    0  0.4709932E-002  0.4560628E+03  0.7546771E-02  0.1025929E+00
         21   -1    0    0  502  501  0.00000000000E+00  0.00000000000E+00  0.68918395969E+02  0.68918395969E+02  0.00000000000E+00 0.  1.
         21   -1    0    0  501  502 -0.00000000000E+00 -0.00000000000E+00 -0.75449116511E+03  0.75449116511E+03  0.00000000000E+00 0.  1.
      99926    2    1    2    0    0  0.00000000000E+00  0.00000000000E+00 -0.68557276914E+03  0.82340956108E+03  0.45606280652E+03 0.  0.
         25    1    3    3    0    0  0.13787755404E+02  0.46847757080E+02 -0.17317847979E+03  0.21914175436E+03  0.12509000000E+03 0.  0.
         25    1    3    3    0    0  0.12488374477E+02 -0.86330122173E+01 -0.74237038856E+02  0.14625024593E+03  0.12509000000E+03 0.  0.
         25    1    3    3    0    0 -0.26276129881E+02 -0.38214744863E+02 -0.43815725050E+03  0.45801756079E+03  0.12509000000E+03 0.  0.
<mgrwt>
<rscale>  2 0.45606281E+03</rscale>
<asrwt>0</asrwt>
<pdfrwt beam="1">  1       21 0.10135058E-01 0.45606281E+03</pdfrwt>
<pdfrwt beam="2">  1       21 0.11095459E+00 0.45606281E+03</pdfrwt>
<totfact> 0.46266240E+04</totfact>
</mgrwt>
</event>
<event>
 7    0  0.4709932E-002  0.4529252E+03  0.7546771E-02  0.1026853E+00
         21   -1    0    0  502  501  0.00000000000E+00  0.00000000000E+00  0.12346337446E+03  0.12346337446E+03  0.00000000000E+00 0. -1.
         21   -1    0    0  501  502 -0.00000000000E+00 -0.00000000000E+00 -0.41538881787E+03  0.41538881787E+03  0.00000000000E+00 0. -1.
      99926    2    1    2    0    0  0.00000000000E+00 -0.35527136788E-14 -0.29192544341E+03  0.53885219233E+03  0.45292518219E+03 0.  0.
      99925    2    3    3    0    0 -0.91124700962E+02  0.21438979479E+02 -0.25550843946E+03  0.37842449134E+03  0.26297755046E+03 0.  0.
         25    1    3    3    0    0  0.91124700962E+02 -0.21438979479E+02 -0.36417003949E+02  0.16042770098E+03  0.12509000000E+03 0.  0.
         25    1    4    4    0    0 -0.67758644634E+02 -0.20978481283E+02 -0.14970364923E+03  0.20758136066E+03  0.12509000000E+03 0.  0.
         25    1    4    4    0    0 -0.23366056328E+02  0.42417460762E+02 -0.10580479023E+03  0.17084313069E+03  0.12509000000E+03 0.  0.
<mgrwt>
<rscale>  2 0.45292518E+03</rscale>
<asrwt>0</asrwt>
<pdfrwt beam="1">  1       21 0.18156379E-01 0.45292518E+03</pdfrwt>
<pdfrwt beam="2">  1       21 0.61086591E-01 0.45292518E+03</pdfrwt>
<totfact> 0.63647935E+04</totfact>
</mgrwt>
</event>
<event>
 7    0  0.4709932E-002  0.4624546E+03  0.7546771E-02  0.1024072E+00
         21   -1    0    0  502  501  0.00000000000E+00  0.00000000000E+00  0.52047218546E+02  0.52047218546E+02  0.00000000000E+00 0.  1.
         21   -1    0    0  501  502 -0.00000000000E+00 -0.00000000000E+00 -0.10272608967E+04  0.10272608967E+04  0.00000000000E+00 0.  1.
      99926    2    1    2    0    0  0.00000000000E+00  0.00000000000E+00 -0.97521367813E+03  0.10793081152E+04  0.46245463515E+03 0.  0.
      99925    2    3    3    0    0 -0.11762854508E+03 -0.23636048583E+02 -0.60186006857E+03  0.66768260182E+03  0.26300071716E+03 0.  0.
         25    1    4    4    0    0 -0.15687365383E+02 -0.19777764237E+02 -0.25959611731E+03  0.28926615014E+03  0.12509000000E+03 0.  0.
         25    1    4    4    0    0 -0.10194117970E+03 -0.38582843461E+01 -0.34226395125E+03  0.37841645168E+03  0.12509000000E+03 0.  0.
         25    1    3    3    0    0  0.11762854508E+03  0.23636048583E+02 -0.37335360956E+03  0.41162551340E+03  0.12509000000E+03 0.  0.
<mgrwt>
<rscale>  2 0.46245464E+03</rscale>
<asrwt>0</asrwt>
<pdfrwt beam="1">  1       21 0.76540032E-02 0.46245464E+03</pdfrwt>
<pdfrwt beam="2">  1       21 0.15106777E+00 0.46245464E+03</pdfrwt>
<totfact> 0.34187681E+04</totfact>
</mgrwt>
</event>
<event>
 6    0  0.4709932E-002  0.4469437E+03  0.7546771E-02  0.1028637E+00
         21   -1    0    0  502  501  0.00000000000E+00  0.00000000000E+00  0.10647444229E+03  0.10647444229E+03  0.00000000000E+00 0.  1.
         21   -1    0    0  501  502 -0.00000000000E+00 -0.00000000000E+00 -0.46902959348E+03  0.46902959348E+03  0.00000000000E+00 0.  1.
      99926    2    1    2    0    0  0.35527136788E-14 -0.14210854715E-13 -0.36255515119E+03  0.57550403577E+03  0.44694368497E+03 0.  0.
         25    1    3    3    0    0  0.60042243445E+02  0.87510576161E+02 -0.12419568237E+03  0.20575530992E+03  0.12509000000E+03 0.  0.
         25    1    3    3    0    0 -0.43789330748E+02 -0.12021271746E+02 -0.13826364199E+03  0.19190195220E+03  0.12509000000E+03 0.  0.
         25    1    3    3    0    0 -0.16252912698E+02 -0.75489304415E+02 -0.10009582683E+03  0.17784677366E+03  0.12509000000E+03 0.  0.
<mgrwt>
<rscale>  2 0.44694368E+03</rscale>
<asrwt>0</asrwt>
<pdfrwt beam="1">  1       21 0.15658006E-01 0.44694368E+03</pdfrwt>
<pdfrwt beam="2">  1       21 0.68974941E-01 0.44694368E+03</pdfrwt>
<totfact> 0.64204951E+04</totfact>
</mgrwt>
</event>
<event>
 7    0  0.4709932E-002  0.4553199E+03  0.7546771E-02  0.1026147E+00
         21   -1    0    0  502  501  0.00000000000E+00  0.00000000000E+00  0.10656708697E+03  0.10656708697E+03  0.00000000000E+00 0. -1.
         21   -1    0    0  501  502 -0.00000000000E+00 -0.00000000000E+00 -0.48635141545E+03  0.48635141545E+03  0.00000000000E+00 0. -1.
      99926    2    1    2    0    0 -0.35527136788E-14 -0.22204460493E-14 -0.37978432848E+03  0.59291850242E+03  0.45531990331E+03 0.  0.
      99925    2    3    3    0    0 -0.28260202450E+02  0.36923370588E+01 -0.38194633127E+03  0.46460461092E+03  0.26298701892E+03 0.  0.
         25    1    4    4    0    0 -0.75738289168E+01 -0.34012922895E+02 -0.22044200456E+03  0.25584453733E+03  0.12509000000E+03 0.  0.
         25    1    4    4    0    0 -0.20686373533E+02  0.37705259954E+02 -0.16150432672E+03  0.20876007359E+03  0.12509000000E+03 0.  0.
         25    1    3    3    0    0  0.28260202450E+02 -0.36923370588E+01  0.21620027903E+01  0.12831389150E+03  0.12509000000E+03 0.  0.
<mgrwt>
<rscale>  2 0.45531990E+03</rscale>
<asrwt>0</asrwt>
<pdfrwt beam="1">  1       21 0.15671631E-01 0.45531990E+03</pdfrwt>
<pdfrwt beam="2">  1       21 0.71522266E-01 0.45531990E+03</pdfrwt>
<totfact> 0.58967062E+04</totfact>
</mgrwt>
</event>
<event>
 7    0  0.4709932E-002  0.4534067E+03  0.7546771E-02  0.1026711E+00
         21   -1    0    0  502  501  0.00000000000E+00  0.00000000000E+00  0.63863272318E+02  0.63863272318E+02  0.00000000000E+00 0. -1.
         21   -1    0    0  501  502 -0.00000000000E+00 -0.00000000000E+00 -0.80475673301E+03  0.80475673301E+03  0.00000000000E+00 0. -1.
      99926    2    1    2    0    0  0.00000000000E+00 -0.35527136788E-14 -0.74089346069E+03  0.86862000532E+03  0.45340665363E+03 0.  0.
      99925    2    3    3    0    0  0.10670845432E+03  0.24825939600E+02 -0.50770676647E+03  0.58221720513E+03  0.26307354813E+03 0.  0.
         25    1    4    4    0    0  0.29562908046E+02 -0.19837555856E+02 -0.26081048020E+03  0.29143971732E+03  0.12509000000E+03 0.  0.
         25    1    4    4    0    0  0.77145546275E+02  0.44663495456E+02 -0.24689628627E+03  0.29077748780E+03  0.12509000000E+03 0.  0.
         25    1    3    3    0    0 -0.10670845432E+03 -0.24825939600E+02 -0.23318669422E+03  0.28640280020E+03  0.12509000000E+03 0.  0.
<mgrwt>
<rscale>  2 0.45340665E+03</rscale>
<asrwt>0</asrwt>
<pdfrwt beam="1">  1       21 0.93916579E-02 0.45340665E+03</pdfrwt>
<pdfrwt beam="2">  1       21 0.11834658E+00 0.45340665E+03</pdfrwt>
<totfact> 0.45179342E+04</totfact>
</mgrwt>
</event>
<event>
 7    0  0.4709932E-002  0.4595753E+03  0.7546771E-02  0.1024904E+00
         21   -1    0    0  502  501  0.00000000000E+00  0.00000000000E+00  0.86000332680E+02  0.86000332680E+02  0.00000000000E+00 0. -1.
         21   -1    0    0  501  502 -0.00000000000E+00 -0.00000000000E+00 -0.61397863300E+03  0.61397863300E+03  0.00000000000E+00 0. -1.
      99926    2    1    2    0    0  0.00000000000E+00  0.00000000000E+00 -0.52797830032E+03  0.69997896567E+03  0.45957531133E+03 0.  0.
      99925    2    3    3    0    0 -0.77871777045E+02  0.18075670657E+02 -0.46174133430E+03  0.53741947719E+03  0.26310433507E+03 0.  0.
         25    1    4    4    0    0 -0.42688761301E+02 -0.30986682919E+02 -0.24132999158E+03  0.27689380238E+03  0.12509000000E+03 0.  0.
         25    1    4    4    0    0 -0.35183015744E+02  0.49062353576E+02 -0.22041134273E+03  0.26052567481E+03  0.12509000000E+03 0.  0.
         25    1    3    3    0    0  0.77871777045E+02 -0.18075670657E+02 -0.66236966014E+02  0.16255948849E+03  0.12509000000E+03 0.  0.
<mgrwt>
<rscale>  2 0.45957531E+03</rscale>
<asrwt>0</asrwt>
<pdfrwt beam="1">  1       21 0.12647108E-01 0.45957531E+03</pdfrwt>
<pdfrwt beam="2">  1       21 0.90290975E-01 0.45957531E+03</pdfrwt>
<totfact> 0.51041260E+04</totfact>
</mgrwt>
</event>
<event>
 7    0  0.4709932E-002  0.4560988E+03  0.7546771E-02  0.1025919E+00
         21   -1    0    0  502  501  0.00000000000E+00  0.00000000000E+00  0.14199868183E+03  0.14199868183E+03  0.00000000000E+00 0. -1.
         21   -1    0    0  501  502 -0.00000000000E+00 -0.00000000000E+00 -0.36624659971E+03  0.36624659971E+03  0.00000000000E+00 0. -1.
      99926    2    1    2    0    0  0.00000000000E+00  0.00000000000E+00 -0.22424791788E+03  0.50824528155E+03  0.45609882432E+03 0.  0.
      99925    2    3    3    0    0  0.85704909201E+02  0.43660812649E+02 -0.20944515020E+03  0.34975796958E+03  0.26308129603E+03 0.  0.
         25    1    3    3    0    0 -0.85704909201E+02 -0.43660812649E+02 -0.14802767673E+02  0.15848731196E+03  0.12509000000E+03 0.  0.
         25    1    4    4    0    0  0.82716861407E+02  0.88548409762E+01 -0.11381884222E+03  0.18847473124E+03  0.12509000000E+03 0.  0.
         25    1    4    4    0    0  0.29880477943E+01  0.34805971673E+02 -0.95626307980E+02  0.16128323835E+03  0.12509000000E+03 0.  0.
<mgrwt>
<rscale>  2 0.45609882E+03</rscale>
<asrwt>0</asrwt>
<pdfrwt beam="1">  1       21 0.20882160E-01 0.45609882E+03</pdfrwt>
<pdfrwt beam="2">  1       21 0.53859792E-01 0.45609882E+03</pdfrwt>
<totfact> 0.64134051E+04</totfact>
</mgrwt>
</event>
<event>
 7    0  0.4709932E-002  0.4601407E+03  0.7546771E-02  0.1024740E+00
         21   -1    0    0  502  501  0.00000000000E+00  0.00000000000E+00  0.12694181359E+03  0.12694181359E+03  0.00000000000E+00 0. -1.
         21   -1    0    0  501  502 -0.00000000000E+00 -0.00000000000E+00 -0.41698125012E+03  0.41698125012E+03  0.00000000000E+00 0. -1.
      99926    2    1    2    0    0  0.00000000000E+00  0.00000000000E+00 -0.29003943653E+03  0.54392306371E+03  0.46014065729E+03 0.  0.
      99925    2    3    3    0    0  0.70307703150E+02 -0.86832253833E+02 -0.22693938541E+03  0.36472446444E+03  0.26275356684E+03 0.  0.
         25    1    4    4    0    0  0.44028350521E+02 -0.84002229442E+02 -0.11240814885E+03  0.19307503782E+03  0.12509000000E+03 0.  0.
         25    1    3    3    0    0 -0.70307703150E+02  0.86832253833E+02 -0.63100051119E+02  0.17919859927E+03  0.12509000000E+03 0.  0.
         25    1    4    4    0    0  0.26279352630E+02 -0.28300243907E+01 -0.11453123656E+03  0.17164942662E+03  0.12509000000E+03 0.  0.
<mgrwt>
<rscale>  2 0.46014066E+03</rscale>
<asrwt>0</asrwt>
<pdfrwt beam="1">  1       21 0.18667914E-01 0.46014066E+03</pdfrwt>
<pdfrwt beam="2">  1       21 0.61320772E-01 0.46014066E+03</pdfrwt>
<totfact> 0.59799880E+04</totfact>
</mgrwt>
</event>
<event>
 7    0  0.4709932E-002  0.4598174E+03  0.7546771E-02  0.1024834E+00
         21   -1    0    0  502  501  0.00000000000E+00  0.00000000000E+00  0.57172420452E+03  0.57172420452E+03  0.00000000000E+00 0. -1.
         21   -1    0    0  501  502 -0.00000000000E+00 -0.00000000000E+00 -0.92453706052E+02  0.92453706052E+02  0.00000000000E+00 0. -1.
      99926    2    1    2    0    0  0.00000000000E+00 -0.35527136788E-14  0.47927049847E+03  0.66417791058E+03  0.45981744877E+03 0.  0.
      99925    2    3    3    0    0  0.57397603042E+02 -0.22483668659E+02  0.15528296808E+03  0.31145219825E+03  0.26284914195E+03 0.  0.
         25    1    3    3    0    0 -0.57397603042E+02  0.22483668659E+02  0.32398753039E+03  0.35272571233E+03  0.12509000000E+03 0.  0.
         25    1    4    4    0    0  0.62504011242E+02 -0.34403303330E+02  0.76697751598E+02  0.16315756771E+03  0.12509000000E+03 0.  0.
         25    1    4    4    0    0 -0.51064082000E+01  0.11919634671E+02  0.78585216487E+02  0.14829463054E+03  0.12509000000E+03 0.  0.
<mgrwt>
<rscale>  2 0.45981745E+03</rscale>
<asrwt>0</asrwt>
<pdfrwt beam="1">  1       21 0.84077087E-01 0.45981745E+03</pdfrwt>
<pdfrwt beam="2">  1       21 0.13596134E-01 0.45981745E+03</pdfrwt>
<totfact> 0.52854672E+04</totfact>
</mgrwt>
</event>
<event>
 7    0  0.4709932E-002  0.4536024E+03  0.7546771E-02  0.1026653E+00
         21   -1    0    0  502  501  0.00000000000E+00  0.00000000000E+00  0.22154405793E+03  0.22154405793E+03  0.00000000000E+00 0.  1.
         21   -1    0    0  501  502 -0.00000000000E+00 -0.00000000000E+00 -0.23218311260E+03  0.23218311260E+03  0.00000000000E+00 0.  1.
      99926    2    1    2    0    0 -0.44408920985E-15  0.00000000000E+00 -0.10639054667E+02  0.45372717053E+03  0.45360242040E+03 0.  0.
      99925    2    3    3    0    0 -0.22576037351E+01 -0.10785875924E+03 -0.36459886769E+02  0.28653616543E+03  0.26293543320E+03 0.  0.
         25    1    4    4    0    0  0.38544379083E+02 -0.55954681682E+02 -0.25992398351E+02  0.14470559227E+03  0.12509000000E+03 0.  0.
         25    1    3    3    0    0  0.22576037351E+01  0.10785875924E+03  0.25820832102E+02  0.16719100511E+03  0.12509000000E+03 0.  0.
         25    1    4    4    0    0 -0.40801982818E+02 -0.51904077556E+02 -0.10467488418E+02  0.14183057316E+03  0.12509000000E+03 0.  0.
<mgrwt>
<rscale>  2 0.45360242E+03</rscale>
<asrwt>0</asrwt>
<pdfrwt beam="1">  1       21 0.32580009E-01 0.45360242E+03</pdfrwt>
<pdfrwt beam="2">  1       21 0.34144575E-01 0.45360242E+03</pdfrwt>
<totfact> 0.69409926E+04</totfact>
</mgrwt>
</event>
<event>
 7    0  0.4709932E-002  0.4491445E+03  0.7546771E-02  0.1027977E+00
         21   -1    0    0  502  501  0.00000000000E+00  0.00000000000E+00  0.49291664768E+03  0.49291664768E+03  0.00000000000E+00 0. -1.
         21   -1    0    0  501  502 -0.00000000000E+00 -0.00000000000E+00 -0.10231485694E+03  0.10231485694E+03  0.00000000000E+00 0. -1.
      99926    2    1    2    0    0 -0.88817841970E-15 -0.88817841970E-15  0.39060179073E+03  0.59523150462E+03  0.44914450366E+03 0.  0.
      99925    2    3    3    0    0 -0.64317725172E+01 -0.58893960908E+01  0.38915790702E+03  0.46982956849E+03  0.26309673915E+03 0.  0.
         25    1    4    4    0    0 -0.12367165782E+02  0.32714881519E+02  0.22476915369E+03  0.25959948153E+03  0.12509000000E+03 0.  0.
         25    1    4    4    0    0  0.59353932651E+01 -0.38604277610E+02  0.16438875333E+03  0.21023008696E+03  0.12509000000E+03 0.  0.
         25    1    3    3    0    0  0.64317725172E+01  0.58893960908E+01  0.14438837176E+01  0.12540193613E+03  0.12509000000E+03 0.  0.
<mgrwt>
<rscale>  2 0.44914450E+03</rscale>
<asrwt>0</asrwt>
<pdfrwt beam="1">  1       21 0.72487741E-01 0.44914450E+03</pdfrwt>
<pdfrwt beam="2">  1       21 0.15046303E-01 0.44914450E+03</pdfrwt>
<totfact> 0.61782223E+04</totfact>
</mgrwt>
</event>
<event>
 7    0  0.4709932E-002  0.4453340E+03  0.7546771E-02  0.1029123E+00
         21   -1    0    0  502  501  0.00000000000E+00  0.00000000000E+00  0.95455136620E+02  0.95455136620E+02  0.00000000000E+00 0. -1.
         21   -1    0    0  501  502 -0.00000000000E+00 -0.00000000000E+00 -0.51941240161E+03  0.51941240161E+03  0.00000000000E+00 0. -1.
      99926    2    1    2    0    0  0.00000000000E+00  0.35527136788E-14 -0.42395726499E+03  0.61486753823E+03  0.44533395001E+03 0.  0.
      99925    2    3    3    0    0  0.93174654143E+02 -0.29075573928E+02 -0.31859636362E+03  0.42440669498E+03  0.26285070793E+03 0.  0.
         25    1    4    4    0    0  0.63756939085E+02 -0.25295170610E+02 -0.22080169950E+03  0.26287961416E+03  0.12509000000E+03 0.  0.
         25    1    3    3    0    0 -0.93174654143E+02  0.29075573928E+02 -0.10536090137E+03  0.19046084325E+03  0.12509000000E+03 0.  0.
         25    1    4    4    0    0  0.29417715059E+02 -0.37804033171E+01 -0.97794664121E+02  0.16152708082E+03  0.12509000000E+03 0.  0.
<mgrwt>
<rscale>  2 0.44533395E+03</rscale>
<asrwt>0</asrwt>
<pdfrwt beam="1">  1       21 0.14037520E-01 0.44533395E+03</pdfrwt>
<pdfrwt beam="2">  1       21 0.76384178E-01 0.44533395E+03</pdfrwt>
<totfact> 0.62401087E+04</totfact>
</mgrwt>
</event>
<event>
 7    0  0.4709932E-002  0.4636699E+03  0.7546771E-02  0.1023722E+00
         21   -1    0    0  502  501  0.00000000000E+00  0.00000000000E+00  0.25313730821E+03  0.25313730821E+03  0.00000000000E+00 0. -1.
         21   -1    0    0  501  502 -0.00000000000E+00 -0.00000000000E+00 -0.21232528935E+03  0.21232528935E+03  0.00000000000E+00 0. -1.
      99926    2    1    2    0    0  0.00000000000E+00  0.00000000000E+00  0.40812018855E+02  0.46546259756E+03  0.46366993524E+03 0.  0.
      99925    2    3    3    0    0 -0.85939104630E+02  0.81645053082E+02  0.39994463707E+00  0.28845387393E+03  0.26297154415E+03 0.  0.
         25    1    4    4    0    0 -0.40169627096E+02  0.82140869419E+02 -0.64114730312E+01  0.15507848483E+03  0.12509000000E+03 0.  0.
         25    1    3    3    0    0  0.85939104630E+02 -0.81645053082E+02  0.40412074218E+02  0.17700872363E+03  0.12509000000E+03 0.  0.
         25    1    4    4    0    0 -0.45769477533E+02 -0.49581633701E+00  0.68114176682E+01  0.13337538910E+03  0.12509000000E+03 0.  0.
<mgrwt>
<rscale>  2 0.46366994E+03</rscale>
<asrwt>0</asrwt>
<pdfrwt beam="1">  1       21 0.37226075E-01 0.46366994E+03</pdfrwt>
<pdfrwt beam="2">  1       21 0.31224307E-01 0.46366994E+03</pdfrwt>
<totfact> 0.63293136E+04</totfact>
</mgrwt>
</event>
<event>
 7    0  0.4709932E-002  0.4216120E+03  0.7546771E-02  0.1036543E+00
         21   -1    0    0  502  501  0.00000000000E+00  0.00000000000E+00  0.18575021150E+03  0.18575021150E+03  0.00000000000E+00 0. -1.
         21   -1    0    0  501  502 -0.00000000000E+00 -0.00000000000E+00 -0.23924159595E+03  0.23924159595E+03  0.00000000000E+00 0. -1.
      99926    2    1    2    0    0  0.00000000000E+00 -0.88817841970E-15 -0.53491384441E+02  0.42499180745E+03  0.42161203516E+03 0.  0.
      99925    2    3    3    0    0  0.13045353802E+02 -0.74759364096E+01  0.41515633717E+02  0.26719474639E+03  0.26352118278E+03 0.  0.
         25    1    4    4    0    0  0.10124114579E+02  0.37444711041E+02  0.22941367136E+02  0.13296021400E+03  0.12509000000E+03 0.  0.
         25    1    3    3    0    0 -0.13045353802E+02  0.74759364096E+01 -0.95007018158E+02  0.15779706106E+03  0.12509000000E+03 0.  0.
         25    1    4    4    0    0  0.29212392236E+01 -0.44920647450E+02  0.18574266580E+02  0.13423453239E+03  0.12509000000E+03 0.  0.
<mgrwt>
<rscale>  2 0.42161204E+03</rscale>
<asrwt>0</asrwt>
<pdfrwt beam="1">  1       21 0.27316208E-01 0.42161204E+03</pdfrwt>
<pdfrwt beam="2">  1       21 0.35182588E-01 0.42161204E+03</pdfrwt>
<totfact> 0.93282500E+04</totfact>
</mgrwt>
</event>
<event>
 7    0  0.4709932E-002  0.4245089E+03  0.7546771E-02  0.1035609E+00
         21   -1    0    0  502  501  0.00000000000E+00  0.00000000000E+00  0.10450190919E+03  0.10450190919E+03  0.00000000000E+00 0.  1.
         21   -1    0    0  501  502 -0.00000000000E+00 -0.00000000000E+00 -0.43111118685E+03  0.43111118685E+03  0.00000000000E+00 0.  1.
      99926    2    1    2    0    0  0.35527136788E-14  0.00000000000E+00 -0.32660927766E+03  0.53561309604E+03  0.42450885550E+03 0.  0.
      99925    2    3    3    0    0 -0.27270896429E+02 -0.69575916729E+02 -0.25311777962E+03  0.37241683884E+03  0.26275688671E+03 0.  0.
         25    1    4    4    0    0  0.25078397335E+02 -0.40287959959E+02 -0.11135369512E+03  0.17406665174E+03  0.12509000000E+03 0.  0.
         25    1    4    4    0    0 -0.52349293763E+02 -0.29287956771E+02 -0.14176408450E+03  0.19835018710E+03  0.12509000000E+03 0.  0.
         25    1    3    3    0    0  0.27270896429E+02  0.69575916729E+02 -0.73491498035E+02  0.16319625720E+03  0.12509000000E+03 0.  0.
<mgrwt>
<rscale>  2 0.42450886E+03</rscale>
<asrwt>0</asrwt>
<pdfrwt beam="1">  1       21 0.15367928E-01 0.42450886E+03</pdfrwt>
<pdfrwt beam="2">  1       21 0.63398704E-01 0.42450886E+03</pdfrwt>
<totfact> 0.80584009E+04</totfact>
</mgrwt>
</event>
<event>
 7    0  0.4709932E-002  0.4579931E+03  0.7546771E-02  0.1025365E+00
         21   -1    0    0  502  501  0.00000000000E+00  0.00000000000E+00  0.42186737006E+03  0.42186737006E+03  0.00000000000E+00 0. -1.
         21   -1    0    0  501  502 -0.00000000000E+00 -0.00000000000E+00 -0.12430310502E+03  0.12430310502E+03  0.00000000000E+00 0. -1.
      99926    2    1    2    0    0  0.00000000000E+00  0.00000000000E+00  0.29756426504E+03  0.54617047508E+03  0.45799311788E+03 0.  0.
      99925    2    3    3    0    0  0.57969104616E+02 -0.73717168335E+02  0.10518049103E+03  0.29827198255E+03  0.26288514961E+03 0.  0.
         25    1    4    4    0    0  0.33068346525E+02 -0.49210260689E+02  0.95213363113E+02  0.16801267189E+03  0.12509000000E+03 0.  0.
         25    1    4    4    0    0  0.24900758091E+02 -0.24506907646E+02  0.99671279186E+01  0.13025931066E+03  0.12509000000E+03 0.  0.
         25    1    3    3    0    0 -0.57969104616E+02  0.73717168335E+02  0.19238377401E+03  0.24789849253E+03  0.12509000000E+03 0.  0.
<mgrwt>
<rscale>  2 0.45799312E+03</rscale>
<asrwt>0</asrwt>
<pdfrwt beam="1">  1       21 0.62039319E-01 0.45799312E+03</pdfrwt>
<pdfrwt beam="2">  1       21 0.18279869E-01 0.45799312E+03</pdfrwt>
<totfact> 0.60670557E+04</totfact>
</mgrwt>
</event>
<event>
 7    0  0.4709932E-002  0.4539771E+03  0.7546771E-02  0.1026543E+00
         21   -1    0    0  502  501  0.00000000000E+00  0.00000000000E+00  0.21655814982E+03  0.21655814982E+03  0.00000000000E+00 0.  1.
         21   -1    0    0  501  502 -0.00000000000E+00 -0.00000000000E+00 -0.23792135379E+03  0.23792135379E+03  0.00000000000E+00 0.  1.
      99926    2    1    2    0    0  0.71054273576E-14  0.35527136788E-14 -0.21363203975E+02  0.45447950361E+03  0.45397712797E+03 0.  0.
      99925    2    3    3    0    0  0.62171784559E+02  0.96464128560E+01 -0.10631211033E+03  0.29070463110E+03  0.26315116124E+03 0.  0.
         25    1    4    4    0    0  0.25321038615E+02 -0.25409464409E+02 -0.23319224929E+02  0.13220472847E+03  0.12509000000E+03 0.  0.
         25    1    3    3    0    0 -0.62171784559E+02 -0.96464128560E+01  0.84948906350E+02  0.16377487251E+03  0.12509000000E+03 0.  0.
         25    1    4    4    0    0  0.36850745944E+02  0.35055877265E+02 -0.82992885396E+02  0.15849990263E+03  0.12509000000E+03 0.  0.
<mgrwt>
<rscale>  2 0.45397713E+03</rscale>
<asrwt>0</asrwt>
<pdfrwt beam="1">  1       21 0.31846787E-01 0.45397713E+03</pdfrwt>
<pdfrwt beam="2">  1       21 0.34988434E-01 0.45397713E+03</pdfrwt>
<totfact> 0.69146575E+04</totfact>
</mgrwt>
</event>
<event>
 7    0  0.4709932E-002  0.4525313E+03  0.7546771E-02  0.1026970E+00
         21   -1    0    0  502  501  0.00000000000E+00  0.00000000000E+00  0.14576572702E+03  0.14576572702E+03  0.00000000000E+00 0. -1.
         21   -1    0    0  501  502 -0.00000000000E+00 -0.00000000000E+00 -0.35122214342E+03  0.35122214342E+03  0.00000000000E+00 0. -1.
      99926    2    1    2    0    0  0.00000000000E+00  0.35527136788E-14 -0.20545641640E+03  0.49698787045E+03  0.45253132967E+03 0.  0.
      99925    2    3    3    0    0  0.88714763651E+02 -0.19015947160E+02 -0.59426153798E+02  0.28437493285E+03  0.26287966666E+03 0.  0.
         25    1    3    3    0    0 -0.88714763651E+02  0.19015947160E+02 -0.14603026260E+03  0.21261293759E+03  0.12509000000E+03 0.  0.
         25    1    4    4    0    0  0.40815226908E+02 -0.26920629036E+02 -0.66781969836E+02  0.14999314188E+03  0.12509000000E+03 0.  0.
         25    1    4    4    0    0  0.47899536743E+02  0.79046818761E+01  0.73558160378E+01  0.13438179097E+03  0.12509000000E+03 0.  0.
<mgrwt>
<rscale>  2 0.45253133E+03</rscale>
<asrwt>0</asrwt>
<pdfrwt beam="1">  1       21 0.21436136E-01 0.45253133E+03</pdfrwt>
<pdfrwt beam="2">  1       21 0.51650315E-01 0.45253133E+03</pdfrwt>
<totfact> 0.66781947E+04</totfact>
</mgrwt>
</event>
<event>
 7    0  0.4709932E-002  0.4433879E+03  0.7546771E-02  0.1029712E+00
         21   -1    0    0  502  501  0.00000000000E+00  0.00000000000E+00  0.12593466361E+04  0.12593466361E+04  0.00000000000E+00 0.  1.
         21   -1    0    0  501  502 -0.00000000000E+00 -0.00000000000E+00 -0.39026753029E+02  0.39026753029E+02  0.00000000000E+00 0.  1.
      99926    2    1    2    0    0  0.00000000000E+00  0.00000000000E+00  0.12203198830E+04  0.12983733891E+04  0.44338791208E+03 0.  0.
      99925    2    3    3    0    0 -0.38380567788E+02  0.48397412702E+02  0.53897154674E+03  0.60288906791E+03  0.26300099329E+03 0.  0.
         25    1    4    4    0    0  0.10471677067E+02  0.38387975412E+02  0.31926546113E+03  0.34519738621E+03  0.12509000000E+03 0.  0.
         25    1    3    3    0    0  0.38380567788E+02 -0.48397412702E+02  0.68134833630E+03  0.69548432119E+03  0.12509000000E+03 0.  0.
         25    1    4    4    0    0 -0.48852244855E+02  0.10009437289E+02  0.21970608561E+03  0.25769168170E+03  0.12509000000E+03 0.  0.
<mgrwt>
<rscale>  2 0.44338791E+03</rscale>
<asrwt>0</asrwt>
<pdfrwt beam="1">  1       21 0.18519801E+00 0.44338791E+03</pdfrwt>
<pdfrwt beam="2">  1       21 0.57392292E-02 0.44338791E+03</pdfrwt>
<totfact> 0.31951517E+04</totfact>
</mgrwt>
</event>
<event>
 7    0  0.4709932E-002  0.4507938E+03  0.7546771E-02  0.1027486E+00
         21   -1    0    0  502  501  0.00000000000E+00  0.00000000000E+00  0.18138294923E+03  0.18138294923E+03  0.00000000000E+00 0. -1.
         21   -1    0    0  501  502 -0.00000000000E+00 -0.00000000000E+00 -0.28009118999E+03  0.28009118999E+03  0.00000000000E+00 0. -1.
      99926    2    1    2    0    0  0.00000000000E+00  0.17763568394E-14 -0.98708240762E+02  0.46147413922E+03  0.45079381581E+03 0.  0.
      99925    2    3    3    0    0  0.89941885094E+02  0.75669255044E+01 -0.12518688008E+03  0.30496398781E+03  0.26302942394E+03 0.  0.
         25    1    4    4    0    0  0.36629103263E+02 -0.11806160621E+02 -0.10141798521E+03  0.16557231791E+03  0.12509000000E+03 0.  0.
         25    1    4    4    0    0  0.53312781831E+02  0.19373086126E+02 -0.23768894865E+02  0.13939166989E+03  0.12509000000E+03 0.  0.
         25    1    3    3    0    0 -0.89941885094E+02 -0.75669255044E+01  0.26478639316E+02  0.15651015141E+03  0.12509000000E+03 0.  0.
<mgrwt>
<rscale>  2 0.45079382E+03</rscale>
<asrwt>0</asrwt>
<pdfrwt beam="1">  1       21 0.26673964E-01 0.45079382E+03</pdfrwt>
<pdfrwt beam="2">  1       21 0.41189880E-01 0.45079382E+03</pdfrwt>
<totfact> 0.70395074E+04</totfact>
</mgrwt>
</event>
<event>
 7    0  0.4709932E-002  0.4580820E+03  0.7546771E-02  0.1025339E+00
         21   -1    0    0  502  501  0.00000000000E+00  0.00000000000E+00  0.74924756156E+02  0.74924756156E+02  0.00000000000E+00 0.  1.
         21   -1    0    0  501  502 -0.00000000000E+00 -0.00000000000E+00 -0.70016630755E+03  0.70016630755E+03  0.00000000000E+00 0.  1.
      99926    2    1    2    0    0  0.17763568394E-14 -0.14210854715E-13 -0.62524155139E+03  0.77509106370E+03  0.45808204445E+03 0.  0.
      99925    2    3    3    0    0 -0.14454327936E+02  0.11300887319E+03 -0.35532070929E+03  0.45652442685E+03  0.26302435789E+03 0.  0.
         25    1    4    4    0    0  0.24172978873E+02  0.73211277656E+02 -0.15169624981E+03  0.21119537019E+03  0.12509000000E+03 0.  0.
         25    1    4    4    0    0 -0.38627306809E+02  0.39797595537E+02 -0.20362445948E+03  0.24532905666E+03  0.12509000000E+03 0.  0.
         25    1    3    3    0    0  0.14454327936E+02 -0.11300887319E+03 -0.26992084210E+03  0.31856663685E+03  0.12509000000E+03 0.  0.
<mgrwt>
<rscale>  2 0.45808204E+03</rscale>
<asrwt>0</asrwt>
<pdfrwt beam="1">  1       21 0.11018346E-01 0.45808204E+03</pdfrwt>
<pdfrwt beam="2">  1       21 0.10296563E+00 0.45808204E+03</pdfrwt>
<totfact> 0.47825664E+04</totfact>
</mgrwt>
</event>
<event>
 7    0  0.4709932E-002  0.4578479E+03  0.7546771E-02  0.1025407E+00
         21   -1    0    0  502  501  0.00000000000E+00  0.00000000000E+00  0.72803986298E+03  0.72803986298E+03  0.00000000000E+00 0.  1.
         21   -1    0    0  501  502 -0.00000000000E+00 -0.00000000000E+00 -0.71982562961E+02  0.71982562961E+02  0.00000000000E+00 0.  1.
      99926    2    1    2    0    0  0.00000000000E+00  0.00000000000E+00  0.65605730002E+03  0.80002242594E+03  0.45784790171E+03 0.  0.
      99925    2    3    3    0    0 -0.41966734403E+02 -0.10352880920E+03  0.36116290830E+03  0.46077379809E+03  0.26342821706E+03 0.  0.
         25    1    4    4    0    0 -0.49368855430E+02 -0.22863636767E+02  0.18871817552E+03  0.23285636698E+03  0.12509000000E+03 0.  0.
         25    1    4    4    0    0  0.74021210269E+01 -0.80665172434E+02  0.17244473278E+03  0.22791743111E+03  0.12509000000E+03 0.  0.
         25    1    3    3    0    0  0.41966734403E+02  0.10352880920E+03  0.29489439172E+03  0.33924862785E+03  0.12509000000E+03 0.  0.
<mgrwt>
<rscale>  2 0.45784790E+03</rscale>
<asrwt>0</asrwt>
<pdfrwt beam="1">  1       21 0.10706468E+00 0.45784790E+03</pdfrwt>
<pdfrwt beam="2">  1       21 0.10585671E-01 0.45784790E+03</pdfrwt>
<totfact> 0.46710964E+04</totfact>
</mgrwt>
</event>
<event>
 7    0  0.4709932E-002  0.4594378E+03  0.7546771E-02  0.1024944E+00
         21   -1    0    0  502  501  0.00000000000E+00  0.00000000000E+00  0.23194786510E+03  0.23194786510E+03  0.00000000000E+00 0.  1.
         21   -1    0    0  501  502 -0.00000000000E+00 -0.00000000000E+00 -0.22751137572E+03  0.22751137572E+03  0.00000000000E+00 0.  1.
      99926    2    1    2    0    0  0.00000000000E+00  0.00000000000E+00  0.44364893778E+01  0.45945924082E+03  0.45943782119E+03 0.  0.
      99925    2    3    3    0    0  0.16056426625E+02  0.10598978297E+03 -0.44769618492E+02  0.28752788219E+03  0.26301391857E+03 0.  0.
         25    1    4    4    0    0 -0.26921870228E+02  0.30528734160E+02 -0.15427833176E+02  0.13244741161E+03  0.12509000000E+03 0.  0.
         25    1    3    3    0    0 -0.16056426625E+02 -0.10598978297E+03  0.49206107870E+02  0.17193135864E+03  0.12509000000E+03 0.  0.
         25    1    4    4    0    0  0.42978296854E+02  0.75461048812E+02 -0.29341785316E+02  0.15508047058E+03  0.12509000000E+03 0.  0.
<mgrwt>
<rscale>  2 0.45943782E+03</rscale>
<asrwt>0</asrwt>
<pdfrwt beam="1">  1       21 0.34109980E-01 0.45943782E+03</pdfrwt>
<pdfrwt beam="2">  1       21 0.33457555E-01 0.45943782E+03</pdfrwt>
<totfact> 0.65857308E+04</totfact>
</mgrwt>
</event>
<event>
 7    0  0.4709932E-002  0.4639703E+03  0.7546771E-02  0.1023636E+00
         21   -1    0    0  502  501  0.00000000000E+00  0.00000000000E+00  0.15205081467E+03  0.15205081467E+03  0.00000000000E+00 0.  1.
         21   -1    0    0  501  502 -0.00000000000E+00 -0.00000000000E+00 -0.35394157186E+03  0.35394157186E+03  0.00000000000E+00 0.  1.
      99926    2    1    2    0    0  0.00000000000E+00 -0.14210854715E-13 -0.20189075720E+03  0.50599238653E+03  0.46397027640E+03 0.  0.
      99925    2    3    3    0    0 -0.72491599471E+02 -0.96483248493E+02 -0.11137029036E+03  0.31001914282E+03  0.26295337630E+03 0.  0.
         25    1    4    4    0    0 -0.46084447399E+02 -0.19122795622E+02 -0.23621639090E+02  0.13672946843E+03  0.12509000000E+03 0.  0.
         25    1    4    4    0    0 -0.26407152072E+02 -0.77360452870E+02 -0.87748651273E+02  0.17328967439E+03  0.12509000000E+03 0.  0.
         25    1    3    3    0    0  0.72491599471E+02  0.96483248493E+02 -0.90520466834E+02  0.19597324371E+03  0.12509000000E+03 0.  0.
<mgrwt>
<rscale>  2 0.46397028E+03</rscale>
<asrwt>0</asrwt>
<pdfrwt beam="1">  1       21 0.22360414E-01 0.46397028E+03</pdfrwt>
<pdfrwt beam="2">  1       21 0.52050230E-01 0.46397028E+03</pdfrwt>
<totfact> 0.60432579E+04</totfact>
</mgrwt>
</event>
<event>
 7    0  0.4709932E-002  0.4540630E+03  0.7546771E-02  0.1026517E+00
         21   -1    0    0  502  501  0.00000000000E+00  0.00000000000E+00  0.62752584848E+02  0.62752584848E+02  0.00000000000E+00 0. -1.
         21   -1    0    0  501  502 -0.00000000000E+00 -0.00000000000E+00 -0.82137334904E+03  0.82137334904E+03  0.00000000000E+00 0. -1.
      99926    2    1    2    0    0  0.00000000000E+00  0.00000000000E+00 -0.75862076420E+03  0.88412593389E+03  0.45406299465E+03 0.  0.
      99925    2    3    3    0    0  0.10956143942E+03 -0.23810693899E+02 -0.48961368151E+03  0.56697774016E+03  0.26300483373E+03 0.  0.
         25    1    4    4    0    0  0.66144763565E+02 -0.38201371049E+01 -0.32699971807E+03  0.35632295311E+03  0.12509000000E+03 0.  0.
         25    1    3    3    0    0 -0.10956143942E+03  0.23810693899E+02 -0.26900708268E+03  0.31714819373E+03  0.12509000000E+03 0.  0.
         25    1    4    4    0    0  0.43416675852E+02 -0.19990556794E+02 -0.16261396344E+03  0.21065478706E+03  0.12509000000E+03 0.  0.
<mgrwt>
<rscale>  2 0.45406299E+03</rscale>
<asrwt>0</asrwt>
<pdfrwt beam="1">  1       21 0.92283216E-02 0.45406299E+03</pdfrwt>
<pdfrwt beam="2">  1       21 0.12079019E+00 0.45406299E+03</pdfrwt>
<totfact> 0.44250987E+04</totfact>
</mgrwt>
</event>
<event>
 7    0  0.4709932E-002  0.4561203E+03  0.7546771E-02  0.1025912E+00
         21   -1    0    0  502  501  0.00000000000E+00  0.00000000000E+00  0.39883413535E+02  0.39883413535E+02  0.00000000000E+00 0. -1.
         21   -1    0    0  501  502 -0.00000000000E+00 -0.00000000000E+00 -0.13040868804E+04  0.13040868804E+04  0.00000000000E+00 0. -1.
      99926    2    1    2    0    0 -0.71054273576E-14 -0.71054273576E-14 -0.12642034668E+04  0.13439702939E+04  0.45612031893E+03 0.  0.
      99925    2    3    3    0    0  0.42452396635E+02  0.56211169615E+02 -0.10596465349E+04  0.10940644155E+04  0.26299099741E+03 0.  0.
         25    1    3    3    0    0 -0.42452396635E+02 -0.56211169615E+02 -0.20455693192E+03  0.24990587842E+03  0.12509000000E+03 0.  0.
         25    1    4    4    0    0  0.82276485284E+01 -0.48311684498E+01 -0.58237106570E+03  0.59573030866E+03  0.12509000000E+03 0.  0.
         25    1    4    4    0    0  0.34224748107E+02  0.61042338065E+02 -0.47727546923E+03  0.49833410684E+03  0.12509000000E+03 0.  0.
<mgrwt>
<rscale>  2 0.45612032E+03</rscale>
<asrwt>0</asrwt>
<pdfrwt beam="1">  1       21 0.58652085E-02 0.45612032E+03</pdfrwt>
<pdfrwt beam="2">  1       21 0.19177746E+00 0.45612032E+03</pdfrwt>
<totfact> 0.27622628E+04</totfact>
</mgrwt>
</event>
<event>
 7    0  0.4709932E-002  0.4526307E+03  0.7546771E-02  0.1026940E+00
         21   -1    0    0  502  501  0.00000000000E+00  0.00000000000E+00  0.45191646892E+03  0.45191646892E+03  0.00000000000E+00 0. -1.
         21   -1    0    0  501  502 -0.00000000000E+00 -0.00000000000E+00 -0.11333651414E+03  0.11333651414E+03  0.00000000000E+00 0. -1.
      99926    2    1    2    0    0  0.00000000000E+00  0.14210854715E-13  0.33857995478E+03  0.56525298307E+03  0.45263069835E+03 0.  0.
      99925    2    3    3    0    0 -0.24136574155E+02  0.10828538355E+03  0.21399748113E+03  0.35674255325E+03  0.26298674656E+03 0.  0.
         25    1    4    4    0    0 -0.97465782568E+01  0.94147675446E+02  0.13844638456E+03  0.20922162908E+03  0.12509000000E+03 0.  0.
         25    1    4    4    0    0 -0.14389995898E+02  0.14137708104E+02  0.75551096572E+02  0.14752092416E+03  0.12509000000E+03 0.  0.
         25    1    3    3    0    0  0.24136574155E+02 -0.10828538355E+03  0.12458247365E+03  0.20851042982E+03  0.12509000000E+03 0.  0.
<mgrwt>
<rscale>  2 0.45263070E+03</rscale>
<asrwt>0</asrwt>
<pdfrwt beam="1">  1       21 0.66458303E-01 0.45263070E+03</pdfrwt>
<pdfrwt beam="2">  1       21 0.16667135E-01 0.45263070E+03</pdfrwt>
<totfact> 0.62023766E+04</totfact>
</mgrwt>
</event>
<event>
 7    0  0.4709932E-002  0.4605552E+03  0.7546771E-02  0.1024620E+00
         21   -1    0    0  502  501  0.00000000000E+00  0.00000000000E+00  0.27331754059E+03  0.27331754059E+03  0.00000000000E+00 0.  1.
         21   -1    0    0  501  502 -0.00000000000E+00 -0.00000000000E+00 -0.19401525207E+03  0.19401525207E+03  0.00000000000E+00 0.  1.
      99926    2    1    2    0    0  0.00000000000E+00  0.00000000000E+00  0.79302288520E+02  0.46733279265E+03  0.46055519335E+03 0.  0.
      99925    2    3    3    0    0 -0.10663053507E+03  0.46780860683E+02  0.23368787816E+02  0.28751459408E+03  0.26183968689E+03 0.  0.
         25    1    3    3    0    0  0.10663053507E+03 -0.46780860683E+02  0.55933500704E+02  0.17981819857E+03  0.12509000000E+03 0.  0.
         25    1    4    4    0    0 -0.24809480168E+02 -0.67834014365E+01  0.71316787318E+01  0.12790580043E+03  0.12509000000E+03 0.  0.
         25    1    4    4    0    0 -0.81821054899E+02  0.53564262119E+02  0.16237109084E+02  0.15960879366E+03  0.12509000000E+03 0.  0.
<mgrwt>
<rscale>  2 0.46055519E+03</rscale>
<asrwt>0</asrwt>
<pdfrwt beam="1">  1       21 0.40193756E-01 0.46055519E+03</pdfrwt>
<pdfrwt beam="2">  1       21 0.28531655E-01 0.46055519E+03</pdfrwt>
<totfact> 0.64731180E+04</totfact>
</mgrwt>
</event>
<event>
 7    0  0.4709932E-002  0.4592552E+03  0.7546771E-02  0.1024997E+00
         21   -1    0    0  502  501  0.00000000000E+00  0.00000000000E+00  0.33175791919E+03  0.33175791919E+03  0.00000000000E+00 0.  1.
         21   -1    0    0  501  502 -0.00000000000E+00 -0.00000000000E+00 -0.15893771613E+03  0.15893771613E+03  0.00000000000E+00 0.  1.
      99926    2    1    2    0    0  0.00000000000E+00  0.14210854715E-13  0.17282020305E+03  0.49069563532E+03  0.45925524922E+03 0.  0.
      99925    2    3    3    0    0 -0.15557949621E+01  0.10873629894E+03  0.62041350953E+02  0.29133298742E+03  0.26305850514E+03 0.  0.
         25    1    4    4    0    0 -0.14449952906E+01  0.18998378826E+02  0.33553392421E+01  0.12657722074E+03  0.12509000000E+03 0.  0.
         25    1    3    3    0    0  0.15557949621E+01 -0.10873629894E+03  0.11077885210E+03  0.19936264790E+03  0.12509000000E+03 0.  0.
         25    1    4    4    0    0 -0.11079967150E+00  0.89737920111E+02  0.58686011711E+02  0.16475576668E+03  0.12509000000E+03 0.  0.
<mgrwt>
<rscale>  2 0.45925525E+03</rscale>
<asrwt>0</asrwt>
<pdfrwt beam="1">  1       21 0.48787929E-01 0.45925525E+03</pdfrwt>
<pdfrwt beam="2">  1       21 0.23373194E-01 0.45925525E+03</pdfrwt>
<totfact> 0.63748549E+04</totfact>
</mgrwt>
</event>
<event>
 7    0  0.4709932E-002  0.4276483E+03  0.7546771E-02  0.1034605E+00
         21   -1    0    0  502  501  0.00000000000E+00  0.00000000000E+00  0.90270432761E+03  0.90270432761E+03  0.00000000000E+00 0. -1.
         21   -1    0    0  501  502 -0.00000000000E+00 -0.00000000000E+00 -0.50648666212E+02  0.50648666212E+02  0.00000000000E+00 0. -1.
      99926    2    1    2    0    0  0.35527136788E-14  0.00000000000E+00  0.85205566140E+03  0.95335299383E+03  0.42764831428E+03 0.  0.
      99925    2    3    3    0    0 -0.21662763979E+02 -0.76282029893E+02  0.61892083008E+03  0.67715092812E+03  0.26302502183E+03 0.  0.
         25    1    3    3    0    0  0.21662763979E+02  0.76282029893E+02  0.23313483132E+03  0.27620206571E+03  0.12509000000E+03 0.  0.
         25    1    4    4    0    0 -0.28235123132E+02 -0.30137202217E+02  0.39579387110E+03  0.41713998805E+03  0.12509000000E+03 0.  0.
         25    1    4    4    0    0  0.65723591532E+01 -0.46144827677E+02  0.22312695899E+03  0.26001094006E+03  0.12509000000E+03 0.  0.
<mgrwt>
<rscale>  2 0.42764831E+03</rscale>
<asrwt>0</asrwt>
<pdfrwt beam="1">  1       21 0.13275063E+00 0.42764831E+03</pdfrwt>
<pdfrwt beam="2">  1       21 0.74483338E-02 0.42764831E+03</pdfrwt>
<totfact> 0.51087324E+04</totfact>
</mgrwt>
</event>
<event>
 7    0  0.4709932E-002  0.4565197E+03  0.7546771E-02  0.1025795E+00
         21   -1    0    0  502  501  0.00000000000E+00  0.00000000000E+00  0.20822102713E+03  0.20822102713E+03  0.00000000000E+00 0.  1.
         21   -1    0    0  501  502 -0.00000000000E+00 -0.00000000000E+00 -0.25022720517E+03  0.25022720517E+03  0.00000000000E+00 0.  1.
      99926    2    1    2    0    0  0.00000000000E+00  0.00000000000E+00 -0.42006178036E+02  0.45844823230E+03  0.45651972871E+03 0.  0.
      99925    2    3    3    0    0  0.66017504355E+02  0.73711495058E+02  0.31962142154E+02  0.28263436516E+03  0.26280964681E+03 0.  0.
         25    1    4    4    0    0  0.43693599915E+02 -0.26768822852E+01  0.12931805993E+02  0.13315793660E+03  0.12509000000E+03 0.  0.
         25    1    4    4    0    0  0.22323904441E+02  0.76388377343E+02  0.19030336161E+02  0.14947642857E+03  0.12509000000E+03 0.  0.
         25    1    3    3    0    0 -0.66017504355E+02 -0.73711495058E+02 -0.73968320190E+02  0.17581386713E+03  0.12509000000E+03 0.  0.
<mgrwt>
<rscale>  2 0.45651973E+03</rscale>
<asrwt>0</asrwt>
<pdfrwt beam="1">  1       21 0.30620739E-01 0.45651973E+03</pdfrwt>
<pdfrwt beam="2">  1       21 0.36798118E-01 0.45651973E+03</pdfrwt>
<totfact> 0.67472085E+04</totfact>
</mgrwt>
</event>
<event>
 7    0  0.4709932E-002  0.4360821E+03  0.7546771E-02  0.1031956E+00
         21   -1    0    0  502  501  0.00000000000E+00  0.00000000000E+00  0.52426525142E+03  0.52426525142E+03  0.00000000000E+00 0. -1.
         21   -1    0    0  501  502 -0.00000000000E+00 -0.00000000000E+00 -0.90682925787E+02  0.90682925787E+02  0.00000000000E+00 0. -1.
      99926    2    1    2    0    0 -0.35527136788E-14  0.00000000000E+00  0.43358232564E+03  0.61494817721E+03  0.43608213395E+03 0.  0.
      99925    2    3    3    0    0 -0.20741716504E+02 -0.64709341804E+02  0.37005051160E+03  0.45905937962E+03  0.26302208113E+03 0.  0.
         25    1    4    4    0    0 -0.25763352160E+02 -0.38822236353E+02  0.12603493892E+03  0.18358439552E+03  0.12509000000E+03 0.  0.
         25    1    4    4    0    0  0.50216356552E+01 -0.25887105451E+02  0.24401557268E+03  0.27547498410E+03  0.12509000000E+03 0.  0.
         25    1    3    3    0    0  0.20741716504E+02  0.64709341804E+02  0.63531814037E+02  0.15588879759E+03  0.12509000000E+03 0.  0.
<mgrwt>
<rscale>  2 0.43608213E+03</rscale>
<asrwt>0</asrwt>
<pdfrwt beam="1">  1       21 0.77097829E-01 0.43608213E+03</pdfrwt>
<pdfrwt beam="2">  1       21 0.13335725E-01 0.43608213E+03</pdfrwt>
<totfact> 0.67267351E+04</totfact>
</mgrwt>
</event>
<event>
 7    0  0.4709932E-002  0.4257602E+03  0.7546771E-02  0.1035208E+00
         21   -1    0    0  502  501  0.00000000000E+00  0.00000000000E+00  0.13275761874E+03  0.13275761874E+03  0.00000000000E+00 0.  1.
         21   -1    0    0  501  502 -0.00000000000E+00 -0.00000000000E+00 -0.34135848559E+03  0.34135848559E+03  0.00000000000E+00 0.  1.
      99926    2    1    2    0    0 -0.71054273576E-14 -0.14210854715E-13 -0.20860086685E+03  0.47411610432E+03  0.42576021271E+03 0.  0.
      99925    2    3    3    0    0 -0.39763246615E+02 -0.67152488806E+02 -0.10346984495E+03  0.29303432059E+03  0.26281653619E+03 0.  0.
         25    1    3    3    0    0  0.39763246615E+02  0.67152488806E+02 -0.10513102190E+03  0.18108178373E+03  0.12509000000E+03 0.  0.
         25    1    4    4    0    0  0.43460250429E+01 -0.55961120974E+02 -0.27722262478E+02  0.13988054522E+03  0.12509000000E+03 0.  0.
         25    1    4    4    0    0 -0.44109271658E+02 -0.11191367832E+02 -0.75747582475E+02  0.15315377537E+03  0.12509000000E+03 0.  0.
<mgrwt>
<rscale>  2 0.42576021E+03</rscale>
<asrwt>0</asrwt>
<pdfrwt beam="1">  1       21 0.19523179E-01 0.42576021E+03</pdfrwt>
<pdfrwt beam="2">  1       21 0.50199777E-01 0.42576021E+03</pdfrwt>
<totfact> 0.85269672E+04</totfact>
</mgrwt>
</event>
<event>
 6    0  0.4709932E-002  0.4564150E+03  0.7546771E-02  0.1025826E+00
         21   -1    0    0  502  501  0.00000000000E+00  0.00000000000E+00  0.45367765496E+02  0.45367765496E+02  0.00000000000E+00 0.  1.
         21   -1    0    0  501  502 -0.00000000000E+00 -0.00000000000E+00 -0.11479223636E+04  0.11479223636E+04  0.00000000000E+00 0.  1.
      99926    2    1    2    0    0 -0.71054273576E-14  0.00000000000E+00 -0.11025545981E+04  0.11932901291E+04  0.45641504183E+03 0.  0.
         25    1    3    3    0    0 -0.45994571633E+02 -0.11250749137E+02 -0.67493522127E+03  0.68806041957E+03  0.12509000000E+03 0.  0.
         25    1    3    3    0    0  0.60741499690E+02  0.47243266335E+01 -0.18170933669E+03  0.22886161798E+03  0.12509000000E+03 0.  0.
         25    1    3    3    0    0 -0.14746928057E+02  0.65264225037E+01 -0.24591004019E+03  0.27636809158E+03  0.12509000000E+03 0.  0.
<mgrwt>
<rscale>  2 0.45641504E+03</rscale>
<asrwt>0</asrwt>
<pdfrwt beam="1">  1       21 0.66717306E-02 0.45641504E+03</pdfrwt>
<pdfrwt beam="2">  1       21 0.16881210E+00 0.45641504E+03</pdfrwt>
<totfact> 0.32014949E+04</totfact>
</mgrwt>
</event>
<event>
 7    0  0.4709932E-002  0.4550520E+03  0.7546771E-02  0.1026226E+00
         21   -1    0    0  502  501  0.00000000000E+00  0.00000000000E+00  0.63489943771E+03  0.63489943771E+03  0.00000000000E+00 0. -1.
         21   -1    0    0  501  502 -0.00000000000E+00 -0.00000000000E+00 -0.81537431992E+02  0.81537431992E+02  0.00000000000E+00 0. -1.
      99926    2    1    2    0    0 -0.35527136788E-14  0.14210854715E-13  0.55336200572E+03  0.71643686970E+03  0.45505195186E+03 0.  0.
      99925    2    3    3    0    0 -0.17047440094E+02  0.10156937722E+03  0.27334476567E+03  0.39291852953E+03  0.26279394271E+03 0.  0.
         25    1    4    4    0    0 -0.42199235319E+02  0.57307073920E+02  0.17078037185E+03  0.22333454657E+03  0.12509000000E+03 0.  0.
         25    1    4    4    0    0  0.25151795224E+02  0.44262303304E+02  0.10256439382E+03  0.16958398296E+03  0.12509000000E+03 0.  0.
         25    1    3    3    0    0  0.17047440094E+02 -0.10156937722E+03  0.28001724004E+03  0.32351834017E+03  0.12509000000E+03 0.  0.
<mgrwt>
<rscale>  2 0.45505195E+03</rscale>
<asrwt>0</asrwt>
<pdfrwt beam="1">  1       21 0.93367562E-01 0.45505195E+03</pdfrwt>
<pdfrwt beam="2">  1       21 0.11990799E-01 0.45505195E+03</pdfrwt>
<totfact> 0.51998391E+04</totfact>
</mgrwt>
</event>
<event>
 7    0  0.4709932E-002  0.4309321E+03  0.7546771E-02  0.1033566E+00
         21   -1    0    0  502  501  0.00000000000E+00  0.00000000000E+00  0.36881386372E+03  0.36881386372E+03  0.00000000000E+00 0.  1.
         21   -1    0    0  501  502 -0.00000000000E+00 -0.00000000000E+00 -0.12587818759E+03  0.12587818759E+03  0.00000000000E+00 0.  1.
      99926    2    1    2    0    0  0.00000000000E+00 -0.71054273576E-14  0.24293567614E+03  0.49469205131E+03  0.43093210937E+03 0.  0.
      99925    2    3    3    0    0 -0.23027236239E+02 -0.38634735383E+02  0.24428094351E+03  0.36175517068E+03  0.26300328471E+03 0.  0.
         25    1    4    4    0    0  0.46899358320E+01 -0.49739786390E+02  0.95621285276E+02  0.16518771185E+03  0.12509000000E+03 0.  0.
         25    1    4    4    0    0 -0.27717172071E+02  0.11105051008E+02  0.14865965824E+03  0.19656745883E+03  0.12509000000E+03 0.  0.
         25    1    3    3    0    0  0.23027236239E+02  0.38634735383E+02 -0.13452673743E+01  0.13293688063E+03  0.12509000000E+03 0.  0.
<mgrwt>
<rscale>  2 0.43093211E+03</rscale>
<asrwt>0</asrwt>
<pdfrwt beam="1">  1       21 0.54237333E-01 0.43093211E+03</pdfrwt>
<pdfrwt beam="2">  1       21 0.18511498E-01 0.43093211E+03</pdfrwt>
<totfact> 0.79838517E+04</totfact>
</mgrwt>
</event>
<event>
 7    0  0.4709932E-002  0.4541073E+03  0.7546771E-02  0.1026504E+00
         21   -1    0    0  502  501  0.00000000000E+00  0.00000000000E+00  0.51634166847E+03  0.51634166847E+03  0.00000000000E+00 0.  1.
         21   -1    0    0  501  502 -0.00000000000E+00 -0.00000000000E+00 -0.99843486985E+02  0.99843486985E+02  0.00000000000E+00 0.  1.
      99926    2    1    2    0    0  0.00000000000E+00  0.00000000000E+00  0.41649818149E+03  0.61618515546E+03  0.45410726775E+03 0.  0.
      99925    2    3    3    0    0 -0.82498060499E+01 -0.10924474426E+03  0.23008803295E+03  0.36638778753E+03  0.26324329905E+03 0.  0.
         25    1    4    4    0    0  0.16281740674E+02 -0.92188399346E+02  0.11809341297E+03  0.19585034680E+03  0.12509000000E+03 0.  0.
         25    1    4    4    0    0 -0.24531546724E+02 -0.17056344910E+02  0.11199461998E+03  0.17053744073E+03  0.12509000000E+03 0.  0.
         25    1    3    3    0    0  0.82498060499E+01  0.10924474426E+03  0.18641014853E+03  0.24979736793E+03  0.12509000000E+03 0.  0.
<mgrwt>
<rscale>  2 0.45410727E+03</rscale>
<asrwt>0</asrwt>
<pdfrwt beam="1">  1       21 0.75932597E-01 0.45410727E+03</pdfrwt>
<pdfrwt beam="2">  1       21 0.14682866E-01 0.45410727E+03</pdfrwt>
<totfact> 0.58101479E+04</totfact>
</mgrwt>
</event>
<event>
 7    0  0.4709932E-002  0.4503001E+03  0.7546771E-02  0.1027633E+00
         21   -1    0    0  502  501  0.00000000000E+00  0.00000000000E+00  0.46505807883E+02  0.46505807883E+02  0.00000000000E+00 0.  1.
         21   -1    0    0  501  502 -0.00000000000E+00 -0.00000000000E+00 -0.10900259878E+04  0.10900259878E+04  0.00000000000E+00 0.  1.
      99926    2    1    2    0    0  0.00000000000E+00  0.14210854715E-13 -0.10435201799E+04  0.11365317957E+04  0.45030007407E+03 0.  0.
      99925    2    3    3    0    0  0.76092430288E+02  0.71251933131E+02 -0.73653923500E+03  0.78903833595E+03  0.26310559662E+03 0.  0.
         25    1    4    4    0    0  0.36251701991E+02 -0.43105323960E+01 -0.37735990189E+03  0.39922521243E+03  0.12509000000E+03 0.  0.
         25    1    4    4    0    0  0.39840728297E+02  0.75562465527E+02 -0.35917933312E+03  0.38981312352E+03  0.12509000000E+03 0.  0.
         25    1    3    3    0    0 -0.76092430288E+02 -0.71251933131E+02 -0.30698094493E+03  0.34749345976E+03  0.12509000000E+03 0.  0.
<mgrwt>
<rscale>  2 0.45030007E+03</rscale>
<asrwt>0</asrwt>
<pdfrwt beam="1">  1       21 0.68390902E-02 0.45030007E+03</pdfrwt>
<pdfrwt beam="2">  1       21 0.16029792E+00 0.45030007E+03</pdfrwt>
<totfact> 0.35518730E+04</totfact>
</mgrwt>
</event>
<event>
 7    0  0.4709932E-002  0.4475300E+03  0.7546771E-02  0.1028461E+00
         21   -1    0    0  502  501  0.00000000000E+00  0.00000000000E+00  0.98663292138E+03  0.98663292138E+03  0.00000000000E+00 0.  1.
         21   -1    0    0  501  502 -0.00000000000E+00 -0.00000000000E+00 -0.50749142051E+02  0.50749142051E+02  0.00000000000E+00 0.  1.
      99926    2    1    2    0    0  0.00000000000E+00  0.00000000000E+00  0.93588377933E+03  0.10373820634E+04  0.44752999578E+03 0.  0.
      99925    2    3    3    0    0  0.98829854759E+02  0.27035220586E+02  0.53117024452E+03  0.60156237973E+03  0.26312967279E+03 0.  0.
         25    1    4    4    0    0  0.16523150318E+02 -0.11744405429E+02  0.26420834843E+03  0.29302645791E+03  0.12509000000E+03 0.  0.
         25    1    3    3    0    0 -0.98829854759E+02 -0.27035220586E+02  0.40471353481E+03  0.43581968370E+03  0.12509000000E+03 0.  0.
         25    1    4    4    0    0  0.82306704440E+02  0.38779626015E+02  0.26696189609E+03  0.30853592182E+03  0.12509000000E+03 0.  0.
<mgrwt>
<rscale>  2 0.44753000E+03</rscale>
<asrwt>0</asrwt>
<pdfrwt beam="1">  1       21 0.14509306E+00 0.44753000E+03</pdfrwt>
<pdfrwt beam="2">  1       21 0.74631098E-02 0.44753000E+03</pdfrwt>
<totfact> 0.40027483E+04</totfact>
</mgrwt>
</event>
<event>
 7    0  0.4709932E-002  0.4449866E+03  0.7546771E-02  0.1029228E+00
         21   -1    0    0  502  501  0.00000000000E+00  0.00000000000E+00  0.88156165747E+02  0.88156165747E+02  0.00000000000E+00 0.  1.
         21   -1    0    0  501  502 -0.00000000000E+00 -0.00000000000E+00 -0.56154071591E+03  0.56154071591E+03  0.00000000000E+00 0.  1.
      99926    2    1    2    0    0 -0.71054273576E-14  0.00000000000E+00 -0.47338455016E+03  0.64969688166E+03  0.44498663542E+03 0.  0.
      99925    2    3    3    0    0  0.38550294140E+02  0.69973858806E+02 -0.39649079290E+03  0.48253640756E+03  0.26316148972E+03 0.  0.
         25    1    3    3    0    0 -0.38550294140E+02 -0.69973858806E+02 -0.76893757266E+02  0.16716047410E+03  0.12509000000E+03 0.  0.
         25    1    4    4    0    0  0.55161505772E+02  0.19058462395E+02 -0.18000750461E+03  0.22683964937E+03  0.12509000000E+03 0.  0.
         25    1    4    4    0    0 -0.16611211633E+02  0.50915396411E+02 -0.21648328829E+03  0.25569675819E+03  0.12509000000E+03 0.  0.
<mgrwt>
<rscale>  2 0.44498664E+03</rscale>
<asrwt>0</asrwt>
<pdfrwt beam="1">  1       21 0.12964142E-01 0.44498664E+03</pdfrwt>
<pdfrwt beam="2">  1       21 0.82579520E-01 0.44498664E+03</pdfrwt>
<totfact> 0.60346236E+04</totfact>
</mgrwt>
</event>
<event>
 7    0  0.4709932E-002  0.4507772E+03  0.7546771E-02  0.1027491E+00
         21   -1    0    0  502  501  0.00000000000E+00  0.00000000000E+00  0.49439898835E+03  0.49439898835E+03  0.00000000000E+00 0. -1.
         21   -1    0    0  501  502 -0.00000000000E+00 -0.00000000000E+00 -0.10275107240E+03  0.10275107240E+03  0.00000000000E+00 0. -1.
      99926    2    1    2    0    0  0.00000000000E+00  0.00000000000E+00  0.39164791595E+03  0.59715006075E+03  0.45077722323E+03 0.  0.
      99925    2    3    3    0    0 -0.79104702079E+02 -0.73932975315E+02  0.23449249440E+03  0.36896379176E+03  0.26348417595E+03 0.  0.
         25    1    3    3    0    0  0.79104702079E+02  0.73932975315E+02  0.15715542155E+03  0.22818626898E+03  0.12509000000E+03 0.  0.
         25    1    4    4    0    0 -0.24503795719E+02 -0.39595983594E+02  0.64416596171E+02  0.14820689553E+03  0.12509000000E+03 0.  0.
         25    1    4    4    0    0 -0.54600906360E+02 -0.34336991721E+02  0.17007589823E+03  0.22075689623E+03  0.12509000000E+03 0.  0.
<mgrwt>
<rscale>  2 0.45077722E+03</rscale>
<asrwt>0</asrwt>
<pdfrwt beam="1">  1       21 0.72705733E-01 0.45077722E+03</pdfrwt>
<pdfrwt beam="2">  1       21 0.15110452E-01 0.45077722E+03</pdfrwt>
<totfact> 0.60859471E+04</totfact>
</mgrwt>
</event>
<event>
 7    0  0.4709932E-002  0.4673206E+03  0.7546771E-02  0.1022679E+00
         21   -1    0    0  502  501  0.00000000000E+00  0.00000000000E+00  0.31529898097E+02  0.31529898097E+02  0.00000000000E+00 0. -1.
         21   -1    0    0  501  502 -0.00000000000E+00 -0.00000000000E+00 -0.17315989942E+04  0.17315989942E+04  0.00000000000E+00 0. -1.
      99926    2    1    2    0    0  0.00000000000E+00  0.35527136788E-14 -0.17000690961E+04  0.17631288923E+04  0.46732061727E+03 0.  0.
      99925    2    3    3    0    0  0.97498075648E+02  0.15347077494E+02 -0.77401593729E+03  0.82346758705E+03  0.26316684478E+03 0.  0.
         25    1    4    4    0    0  0.17713725167E+02  0.34649016819E+02 -0.38451928525E+03  0.40622274586E+03  0.12509000000E+03 0.  0.
         25    1    3    3    0    0 -0.97498075648E+02 -0.15347077494E+02 -0.92605315877E+03  0.93966130521E+03  0.12509000000E+03 0.  0.
         25    1    4    4    0    0  0.79784350481E+02 -0.19301939325E+02 -0.38949665204E+03  0.41724484118E+03  0.12509000000E+03 0.  0.
<mgrwt>
<rscale>  2 0.46732062E+03</rscale>
<asrwt>0</asrwt>
<pdfrwt beam="1">  1       21 0.46367500E-02 0.46732062E+03</pdfrwt>
<pdfrwt beam="2">  1       21 0.25464689E+00 0.46732062E+03</pdfrwt>
<totfact> 0.16357397E+04</totfact>
</mgrwt>
</event>
<event>
 7    0  0.4709932E-002  0.4547529E+03  0.7546771E-02  0.1026314E+00
         21   -1    0    0  502  501  0.00000000000E+00  0.00000000000E+00  0.14058013782E+03  0.14058013782E+03  0.00000000000E+00 0.  1.
         21   -1    0    0  501  502 -0.00000000000E+00 -0.00000000000E+00 -0.36776219203E+03  0.36776219203E+03  0.00000000000E+00 0.  1.
      99926    2    1    2    0    0  0.00000000000E+00  0.00000000000E+00 -0.22718205421E+03  0.50834232985E+03  0.45475294233E+03 0.  0.
      99925    2    3    3    0    0 -0.76791856865E+02 -0.57747099932E+02 -0.20937046834E+03  0.34960834633E+03  0.26297963035E+03 0.  0.
         25    1    3    3    0    0  0.76791856865E+02  0.57747099932E+02 -0.17811585868E+02  0.15873398351E+03  0.12509000000E+03 0.  0.
         25    1    4    4    0    0 -0.72159493057E+02 -0.19598624316E+02 -0.83107589461E+02  0.16776614092E+03  0.12509000000E+03 0.  0.
         25    1    4    4    0    0 -0.46323638074E+01 -0.38148475616E+02 -0.12626287888E+03  0.18184220541E+03  0.12509000000E+03 0.  0.
<mgrwt>
<rscale>  2 0.45475294E+03</rscale>
<asrwt>0</asrwt>
<pdfrwt beam="1">  1       21 0.20673550E-01 0.45475294E+03</pdfrwt>
<pdfrwt beam="2">  1       21 0.54082674E-01 0.45475294E+03</pdfrwt>
<totfact> 0.64815469E+04</totfact>
</mgrwt>
</event>
<event>
 7    0  0.4709932E-002  0.4472973E+03  0.7546771E-02  0.1028531E+00
         21   -1    0    0  502  501  0.00000000000E+00  0.00000000000E+00  0.41921447609E+03  0.41921447609E+03  0.00000000000E+00 0. -1.
         21   -1    0    0  501  502 -0.00000000000E+00 -0.00000000000E+00 -0.11931531915E+03  0.11931531915E+03  0.00000000000E+00 0. -1.
      99926    2    1    2    0    0  0.00000000000E+00  0.00000000000E+00  0.29989915694E+03  0.53852979524E+03  0.44729725689E+03 0.  0.
      99925    2    3    3    0    0 -0.20492578716E+02 -0.88790664979E+02  0.12531859821E+03  0.30522825740E+03  0.26297492293E+03 0.  0.
         25    1    3    3    0    0  0.20492578716E+02  0.88790664979E+02  0.17458055873E+03  0.23330153784E+03  0.12509000000E+03 0.  0.
         25    1    4    4    0    0 -0.14038287334E+02 -0.64805477292E+02  0.26840513376E+02  0.14409977327E+03  0.12509000000E+03 0.  0.
         25    1    4    4    0    0 -0.64542913819E+01 -0.23985187687E+02  0.98478084835E+02  0.16112848413E+03  0.12509000000E+03 0.  0.
<mgrwt>
<rscale>  2 0.44729726E+03</rscale>
<asrwt>0</asrwt>
<pdfrwt beam="1">  1       21 0.61649187E-01 0.44729726E+03</pdfrwt>
<pdfrwt beam="2">  1       21 0.17546371E-01 0.44729726E+03</pdfrwt>
<totfact> 0.66598880E+04</totfact>
</mgrwt>
</event>
<event>
 7    0  0.4709932E-002  0.4505466E+03  0.7546771E-02  0.1027559E+00
         21   -1    0    0  502  501  0.00000000000E+00  0.00000000000E+00  0.44196787160E+02  0.44196787160E+02  0.00000000000E+00 0. -1.
         21   -1    0    0  501  502 -0.00000000000E+00 -0.00000000000E+00 -0.11482298149E+04  0.11482298149E+04  0.00000000000E+00 0. -1.
      99926    2    1    2    0    0  0.71054273576E-14  0.14210854715E-13 -0.11040330277E+04  0.11924266020E+04  0.45054664015E+03 0.  0.
      99925    2    3    3    0    0  0.32564639869E+02  0.93523277168E+02 -0.81767899220E+03  0.86462605155E+03  0.26300611321E+03 0.  0.
         25    1    4    4    0    0  0.40755436277E+02  0.55116490207E+02 -0.32748393416E+03  0.35720031959E+03  0.12509000000E+03 0.  0.
         25    1    4    4    0    0 -0.81907964081E+01  0.38406786961E+02 -0.49019505804E+03  0.50742573196E+03  0.12509000000E+03 0.  0.
         25    1    3    3    0    0 -0.32564639869E+02 -0.93523277168E+02 -0.28635403550E+03  0.32780055047E+03  0.12509000000E+03 0.  0.
<mgrwt>
<rscale>  2 0.45054664E+03</rscale>
<asrwt>0</asrwt>
<pdfrwt beam="1">  1       21 0.64995277E-02 0.45054664E+03</pdfrwt>
<pdfrwt beam="2">  1       21 0.16885732E+00 0.45054664E+03</pdfrwt>
<totfact> 0.33545705E+04</totfact>
</mgrwt>
</event>
<event>
 7    0  0.4709932E-002  0.4402483E+03  0.7546771E-02  0.1030671E+00
         21   -1    0    0  502  501  0.00000000000E+00  0.00000000000E+00  0.66269669218E+02  0.66269669218E+02  0.00000000000E+00 0. -1.
         21   -1    0    0  501  502 -0.00000000000E+00 -0.00000000000E+00 -0.73117359247E+03  0.73117359247E+03  0.00000000000E+00 0. -1.
      99926    2    1    2    0    0  0.00000000000E+00  0.35527136788E-14 -0.66490392325E+03  0.79744326169E+03  0.44024825776E+03 0.  0.
      99925    2    3    3    0    0 -0.76384676903E+02  0.21457136638E+02 -0.31822548576E+03  0.42044395837E+03  0.26307914164E+03 0.  0.
         25    1    4    4    0    0 -0.44163619571E+02 -0.23829157014E+02 -0.12631663609E+03  0.18472047713E+03  0.12509000000E+03 0.  0.
         25    1    4    4    0    0 -0.32221057331E+02  0.45286293652E+02 -0.19190884967E+03  0.23572348125E+03  0.12509000000E+03 0.  0.
         25    1    3    3    0    0  0.76384676903E+02 -0.21457136638E+02 -0.34667843749E+03  0.37699930332E+03  0.12509000000E+03 0.  0.
<mgrwt>
<rscale>  2 0.44024826E+03</rscale>
<asrwt>0</asrwt>
<pdfrwt beam="1">  1       21 0.97455396E-02 0.44024826E+03</pdfrwt>
<pdfrwt beam="2">  1       21 0.10752553E+00 0.44024826E+03</pdfrwt>
<totfact> 0.53858611E+04</totfact>
</mgrwt>
</event>
<event>
 7    0  0.4709932E-002  0.4705820E+03  0.7546771E-02  0.1021756E+00
         21   -1    0    0  502  501  0.00000000000E+00  0.00000000000E+00  0.11042453961E+03  0.11042453961E+03  0.00000000000E+00 0. -1.
         21   -1    0    0  501  502 -0.00000000000E+00 -0.00000000000E+00 -0.50135467164E+03  0.50135467164E+03  0.00000000000E+00 0. -1.
      99926    2    1    2    0    0  0.35527136788E-14  0.00000000000E+00 -0.39093013203E+03  0.61177921125E+03  0.47058201749E+03 0.  0.
      99925    2    3    3    0    0 -0.24043278303E+02  0.98510169779E+02 -0.34272399980E+03  0.44369092473E+03  0.26290599815E+03 0.  0.
         25    1    3    3    0    0  0.24043278303E+02 -0.98510169779E+02 -0.48206132224E+02  0.16808828652E+03  0.12509000000E+03 0.  0.
         25    1    4    4    0    0 -0.28348316578E+02  0.38009710453E+02 -0.11269840421E+03  0.17491942017E+03  0.12509000000E+03 0.  0.
         25    1    4    4    0    0  0.43050382754E+01  0.60500459326E+02 -0.23002559560E+03  0.26877150456E+03  0.12509000000E+03 0.  0.
<mgrwt>
<rscale>  2 0.47058202E+03</rscale>
<asrwt>0</asrwt>
<pdfrwt beam="1">  1       21 0.16238903E-01 0.47058202E+03</pdfrwt>
<pdfrwt beam="2">  1       21 0.73728629E-01 0.47058202E+03</pdfrwt>
<totfact> 0.51341692E+04</totfact>
</mgrwt>
</event>
<event>
 7    0  0.4709932E-002  0.4470918E+03  0.7546771E-02  0.1028593E+00
         21   -1    0    0  502  501  0.00000000000E+00  0.00000000000E+00  0.47651870328E+02  0.47651870328E+02  0.00000000000E+00 0. -1.
         21   -1    0    0  501  502 -0.00000000000E+00 -0.00000000000E+00 -0.10487052549E+04  0.10487052549E+04  0.00000000000E+00 0. -1.
      99926    2    1    2    0    0  0.00000000000E+00  0.22204460493E-14 -0.10010533846E+04  0.10963571252E+04  0.44709178842E+03 0.  0.
      99925    2    3    3    0    0  0.51828926265E+02  0.34577891383E+01 -0.85997738984E+03  0.90078581267E+03  0.26297485691E+03 0.  0.
         25    1    4    4    0    0  0.56998627349E+02  0.28287170983E+02 -0.46111556636E+03  0.48200008423E+03  0.12509000000E+03 0.  0.
         25    1    3    3    0    0 -0.51828926265E+02 -0.34577891383E+01 -0.14107599471E+03  0.19557131254E+03  0.12509000000E+03 0.  0.
         25    1    4    4    0    0 -0.51697010833E+01 -0.24829381845E+02 -0.39886182348E+03  0.41878572844E+03  0.12509000000E+03 0.  0.
<mgrwt>
<rscale>  2 0.44709179E+03</rscale>
<asrwt>0</asrwt>
<pdfrwt beam="1">  1       21 0.70076289E-02 0.44709179E+03</pdfrwt>
<pdfrwt beam="2">  1       21 0.15422134E+00 0.44709179E+03</pdfrwt>
<totfact> 0.37905958E+04</totfact>
</mgrwt>
</event>
<event>
 7    0  0.4709932E-002  0.4411548E+03  0.7546771E-02  0.1030393E+00
         21   -1    0    0  502  501  0.00000000000E+00  0.00000000000E+00  0.26826422698E+03  0.26826422698E+03  0.00000000000E+00 0. -1.
         21   -1    0    0  501  502 -0.00000000000E+00 -0.00000000000E+00 -0.18136742104E+03  0.18136742104E+03  0.00000000000E+00 0. -1.
      99926    2    1    2    0    0 -0.17763568394E-14  0.00000000000E+00  0.86896805942E+02  0.44963164801E+03  0.44115480731E+03 0.  0.
      99925    2    3    3    0    0 -0.53003927628E+01 -0.49990686493E+02  0.14363608135E+03  0.30336471268E+03  0.26243411008E+03 0.  0.
         25    1    4    4    0    0 -0.17238061321E+02 -0.62100707304E+02  0.69174859472E+02  0.15680024837E+03  0.12509000000E+03 0.  0.
         25    1    4    4    0    0  0.11937668558E+02  0.12110020811E+02  0.74461221875E+02  0.14656446431E+03  0.12509000000E+03 0.  0.
         25    1    3    3    0    0  0.53003927628E+01  0.49990686493E+02 -0.56739275405E+02  0.14626693534E+03  0.12509000000E+03 0.  0.
<mgrwt>
<rscale>  2 0.44115481E+03</rscale>
<asrwt>0</asrwt>
<pdfrwt beam="1">  1       21 0.39450622E-01 0.44115481E+03</pdfrwt>
<pdfrwt beam="2">  1       21 0.26671679E-01 0.44115481E+03</pdfrwt>
<totfact> 0.77107687E+04</totfact>
</mgrwt>
</event>
<event>
 7    0  0.4709932E-002  0.4545588E+03  0.7546771E-02  0.1026371E+00
         21   -1    0    0  502  501  0.00000000000E+00  0.00000000000E+00  0.42413526162E+03  0.42413526162E+03  0.00000000000E+00 0. -1.
         21   -1    0    0  501  502 -0.00000000000E+00 -0.00000000000E+00 -0.12179116757E+03  0.12179116757E+03  0.00000000000E+00 0. -1.
      99926    2    1    2    0    0  0.00000000000E+00 -0.88817841970E-15  0.30234409406E+03  0.54592642919E+03  0.45455881344E+03 0.  0.
      99925    2    3    3    0    0  0.11222535906E+03 -0.72919365031E+01  0.18122585261E+03  0.33864681112E+03  0.26304210590E+03 0.  0.
         25    1    3    3    0    0 -0.11222535906E+03  0.72919365031E+01  0.12111824145E+03  0.20727961806E+03  0.12509000000E+03 0.  0.
         25    1    4    4    0    0  0.13793650081E+02 -0.76905071314E+01  0.92867867721E+02  0.15659296803E+03  0.12509000000E+03 0.  0.
         25    1    4    4    0    0  0.98431708976E+02  0.39857062837E+00  0.88357984890E+02  0.18205384309E+03  0.12509000000E+03 0.  0.
<mgrwt>
<rscale>  2 0.45455881E+03</rscale>
<asrwt>0</asrwt>
<pdfrwt beam="1">  1       21 0.62372832E-01 0.45455881E+03</pdfrwt>
<pdfrwt beam="2">  1       21 0.17910466E-01 0.45455881E+03</pdfrwt>
<totfact> 0.62353894E+04</totfact>
</mgrwt>
</event>
<event>
 7    0  0.4709932E-002  0.4465439E+03  0.7546771E-02  0.1028758E+00
         21   -1    0    0  502  501  0.00000000000E+00  0.00000000000E+00  0.14241624999E+03  0.14241624999E+03  0.00000000000E+00 0. -1.
         21   -1    0    0  501  502 -0.00000000000E+00 -0.00000000000E+00 -0.35003276261E+03  0.35003276261E+03  0.00000000000E+00 0. -1.
      99926    2    1    2    0    0  0.00000000000E+00  0.00000000000E+00 -0.20761651262E+03  0.49244901260E+03  0.44654385417E+03 0.  0.
      99925    2    3    3    0    0 -0.84439182520E+02 -0.26273967615E+02 -0.19431150185E+03  0.33868026308E+03  0.26292026154E+03 0.  0.
         25    1    4    4    0    0 -0.68995703850E+02 -0.43534383011E+02 -0.91791614194E+02  0.17529648653E+03  0.12509000000E+03 0.  0.
         25    1    3    3    0    0  0.84439182520E+02  0.26273967615E+02 -0.13305010775E+02  0.15376874953E+03  0.12509000000E+03 0.  0.
         25    1    4    4    0    0 -0.15443478671E+02  0.17260415395E+02 -0.10251988766E+03  0.16338377655E+03  0.12509000000E+03 0.  0.
<mgrwt>
<rscale>  2 0.44654385E+03</rscale>
<asrwt>0</asrwt>
<pdfrwt beam="1">  1       21 0.20943567E-01 0.44654385E+03</pdfrwt>
<pdfrwt beam="2">  1       21 0.51475405E-01 0.44654385E+03</pdfrwt>
<totfact> 0.70413787E+04</totfact>
</mgrwt>
</event>
<event>
 7    0  0.4709932E-002  0.4549646E+03  0.7546771E-02  0.1026252E+00
         21   -1    0    0  502  501  0.00000000000E+00  0.00000000000E+00  0.49567223106E+03  0.49567223106E+03  0.00000000000E+00 0.  1.
         21   -1    0    0  501  502 -0.00000000000E+00 -0.00000000000E+00 -0.10440003063E+03  0.10440003063E+03  0.00000000000E+00 0.  1.
      99926    2    1    2    0    0  0.00000000000E+00  0.00000000000E+00  0.39127220043E+03  0.60007226169E+03  0.45496459689E+03 0.  0.
      99925    2    3    3    0    0  0.41807264960E+02 -0.84673788759E+02  0.32633356589E+03  0.43041958042E+03  0.26429135642E+03 0.  0.
         25    1    4    4    0    0  0.45638420268E+01 -0.24477220411E+02  0.20915820805E+03  0.24497882984E+03  0.12509000000E+03 0.  0.
         25    1    4    4    0    0  0.37243422933E+02 -0.60196568348E+02  0.11717535784E+03  0.18544075059E+03  0.12509000000E+03 0.  0.
         25    1    3    3    0    0 -0.41807264960E+02  0.84673788759E+02  0.64938634533E+02  0.16965268127E+03  0.12509000000E+03 0.  0.
<mgrwt>
<rscale>  2 0.45496460E+03</rscale>
<asrwt>0</asrwt>
<pdfrwt beam="1">  1       21 0.72892974E-01 0.45496460E+03</pdfrwt>
<pdfrwt beam="2">  1       21 0.15352946E-01 0.45496460E+03</pdfrwt>
<totfact> 0.58690235E+04</totfact>
</mgrwt>
</event>
<event>
 7    0  0.4709932E-002  0.4575557E+03  0.7546771E-02  0.1025493E+00
         21   -1    0    0  502  501  0.00000000000E+00  0.00000000000E+00  0.62398753182E+03  0.62398753182E+03  0.00000000000E+00 0.  1.
         21   -1    0    0  501  502 -0.00000000000E+00 -0.00000000000E+00 -0.83878763961E+02  0.83878763961E+02  0.00000000000E+00 0.  1.
      99926    2    1    2    0    0 -0.14210854715E-13  0.88817841970E-15  0.54010876786E+03  0.70786629578E+03  0.45755569233E+03 0.  0.
      99925    2    3    3    0    0  0.91252756936E+02  0.23933454963E+01  0.44937538998E+03  0.52838691615E+03  0.26252942366E+03 0.  0.
         25    1    4    4    0    0  0.74430902074E+01 -0.14891658606E+02  0.19436170391E+03  0.23173506669E+03  0.12509000000E+03 0.  0.
         25    1    3    3    0    0 -0.91252756936E+02 -0.23933454963E+01  0.90733377876E+02  0.17947937963E+03  0.12509000000E+03 0.  0.
         25    1    4    4    0    0  0.83809666728E+02  0.17285004102E+02  0.25501368607E+03  0.29665184946E+03  0.12509000000E+03 0.  0.
<mgrwt>
<rscale>  2 0.45755569E+03</rscale>
<asrwt>0</asrwt>
<pdfrwt beam="1">  1       21 0.91762870E-01 0.45755569E+03</pdfrwt>
<pdfrwt beam="2">  1       21 0.12335113E-01 0.45755569E+03</pdfrwt>
<totfact> 0.51435819E+04</totfact>
</mgrwt>
</event>
<event>
 7    0  0.4709932E-002  0.4256635E+03  0.7546771E-02  0.1035239E+00
         21   -1    0    0  502  501  0.00000000000E+00  0.00000000000E+00  0.60525970175E+02  0.60525970175E+02  0.00000000000E+00 0. -1.
         21   -1    0    0  501  502 -0.00000000000E+00 -0.00000000000E+00 -0.74839516515E+03  0.74839516515E+03  0.00000000000E+00 0. -1.
      99926    2    1    2    0    0  0.00000000000E+00  0.00000000000E+00 -0.68786919498E+03  0.80892113533E+03  0.42566345131E+03 0.  0.
      99925    2    3    3    0    0  0.31793435004E+02  0.46818241685E+02 -0.33099645113E+03  0.42654902120E+03  0.26302594275E+03 0.  0.
         25    1    4    4    0    0  0.19335154095E+02  0.62512566143E+02 -0.19437659314E+03  0.24023204859E+03  0.12509000000E+03 0.  0.
         25    1    4    4    0    0  0.12458280909E+02 -0.15694324458E+02 -0.13661985799E+03  0.18631697261E+03  0.12509000000E+03 0.  0.
         25    1    3    3    0    0 -0.31793435004E+02 -0.46818241685E+02 -0.35687274385E+03  0.38237211413E+03  0.12509000000E+03 0.  0.
<mgrwt>
<rscale>  2 0.42566345E+03</rscale>
<asrwt>0</asrwt>
<pdfrwt beam="1">  1       21 0.89008783E-02 0.42566345E+03</pdfrwt>
<pdfrwt beam="2">  1       21 0.11005811E+00 0.42566345E+03</pdfrwt>
<totfact> 0.60002751E+04</totfact>
</mgrwt>
</event>
<event>
 7    0  0.4709932E-002  0.4654627E+03  0.7546771E-02  0.1023209E+00
         21   -1    0    0  502  501  0.00000000000E+00  0.00000000000E+00  0.82626637702E+03  0.82626637702E+03  0.00000000000E+00 0. -1.
         21   -1    0    0  501  502 -0.00000000000E+00 -0.00000000000E+00 -0.65552573565E+02  0.65552573565E+02  0.00000000000E+00 0. -1.
      99926    2    1    2    0    0  0.00000000000E+00  0.71054273576E-14  0.76071380346E+03  0.89181895059E+03  0.46546272660E+03 0.  0.
      99925    2    3    3    0    0 -0.60749748005E+02  0.51756873794E+02  0.65299604130E+03  0.70846156663E+03  0.26295371375E+03 0.  0.
         25    1    4    4    0    0 -0.10999753359E+02 -0.79538641907E+01  0.26189438521E+03  0.29055194997E+03  0.12509000000E+03 0.  0.
         25    1    3    3    0    0  0.60749748005E+02 -0.51756873794E+02  0.10771776216E+03  0.18335738396E+03  0.12509000000E+03 0.  0.
         25    1    4    4    0    0 -0.49749994646E+02  0.59710737984E+02  0.39110165609E+03  0.41790961666E+03  0.12509000000E+03 0.  0.
<mgrwt>
<rscale>  2 0.46546273E+03</rscale>
<asrwt>0</asrwt>
<pdfrwt beam="1">  1       21 0.12150976E+00 0.46546273E+03</pdfrwt>
<pdfrwt beam="2">  1       21 0.96400848E-02 0.46546273E+03</pdfrwt>
<totfact> 0.40193701E+04</totfact>
</mgrwt>
</event>
<event>
 7    0  0.4709932E-002  0.4451420E+03  0.7546771E-02  0.1029181E+00
         21   -1    0    0  502  501  0.00000000000E+00  0.00000000000E+00  0.75277266807E+02  0.75277266807E+02  0.00000000000E+00 0. -1.
         21   -1    0    0  501  502 -0.00000000000E+00 -0.00000000000E+00 -0.65807198165E+03  0.65807198165E+03  0.00000000000E+00 0. -1.
      99926    2    1    2    0    0  0.00000000000E+00  0.00000000000E+00 -0.58279471484E+03  0.73334924846E+03  0.44514204538E+03 0.  0.
      99925    2    3    3    0    0  0.11833098676E+02 -0.10160737850E+03 -0.33311575626E+03  0.43594183084E+03  0.26194482477E+03 0.  0.
         25    1    4    4    0    0  0.23648821178E+02 -0.43550638647E+02 -0.21674213184E+03  0.25510896629E+03  0.12509000000E+03 0.  0.
         25    1    4    4    0    0 -0.11815722502E+02 -0.58056739858E+02 -0.11637362442E+03  0.18083286455E+03  0.12509000000E+03 0.  0.
         25    1    3    3    0    0 -0.11833098676E+02  0.10160737850E+03 -0.24967895859E+03  0.29740741761E+03  0.12509000000E+03 0.  0.
<mgrwt>
<rscale>  2 0.44514205E+03</rscale>
<asrwt>0</asrwt>
<pdfrwt beam="1">  1       21 0.11070187E-01 0.44514205E+03</pdfrwt>
<pdfrwt beam="2">  1       21 0.96775286E-01 0.44514205E+03</pdfrwt>
<totfact> 0.55292168E+04</totfact>
</mgrwt>
</event>
<event>
 7    0  0.4709932E-002  0.4522043E+03  0.7546771E-02  0.1027067E+00
         21   -1    0    0  502  501  0.00000000000E+00  0.00000000000E+00  0.15994733576E+03  0.15994733576E+03  0.00000000000E+00 0.  1.
         21   -1    0    0  501  502 -0.00000000000E+00 -0.00000000000E+00 -0.31961885103E+03  0.31961885103E+03  0.00000000000E+00 0.  1.
      99926    2    1    2    0    0 -0.71054273576E-14  0.14210854715E-13 -0.15967151527E+03  0.47956618679E+03  0.45220430640E+03 0.  0.
      99925    2    3    3    0    0 -0.57678551740E+02  0.69172340891E+02 -0.16687681576E+03  0.32525788329E+03  0.26425970356E+03 0.  0.
         25    1    3    3    0    0  0.57678551740E+02 -0.69172340891E+02  0.72053004897E+01  0.15430830350E+03  0.12509000000E+03 0.  0.
         25    1    4    4    0    0 -0.14993402482E+02 -0.58744219668E+01 -0.61561094636E+02  0.14034453115E+03  0.12509000000E+03 0.  0.
         25    1    4    4    0    0 -0.42685149258E+02  0.75046762858E+02 -0.10531572113E+03  0.18491335214E+03  0.12509000000E+03 0.  0.
<mgrwt>
<rscale>  2 0.45220431E+03</rscale>
<asrwt>0</asrwt>
<pdfrwt beam="1">  1       21 0.23521667E-01 0.45220431E+03</pdfrwt>
<pdfrwt beam="2">  1       21 0.47002772E-01 0.45220431E+03</pdfrwt>
<totfact> 0.68233360E+04</totfact>
</mgrwt>
</event>
<event>
 6    0  0.4709932E-002  0.4499179E+03  0.7546771E-02  0.1027747E+00
         21   -1    0    0  502  501  0.00000000000E+00  0.00000000000E+00  0.13836995463E+04  0.13836995463E+04  0.00000000000E+00 0.  1.
         21   -1    0    0  501  502 -0.00000000000E+00 -0.00000000000E+00 -0.36573358461E+02  0.36573358461E+02  0.00000000000E+00 0.  1.
      99926    2    1    2    0    0 -0.71054273576E-14  0.00000000000E+00  0.13471261879E+04  0.14202729048E+04  0.44991794590E+03 0.  0.
         25    1    3    3    0    0  0.47122186893E+00 -0.54444333235E+01  0.37903598484E+03  0.39918122426E+03  0.12509000000E+03 0.  0.
         25    1    3    3    0    0  0.50024731012E+02 -0.84646369113E+02  0.55290220821E+03  0.57533976176E+03  0.12509000000E+03 0.  0.
         25    1    3    3    0    0 -0.50495952881E+02  0.90090802436E+02  0.41518799484E+03  0.44575191878E+03  0.12509000000E+03 0.  0.
<mgrwt>
<rscale>  2 0.44991795E+03</rscale>
<asrwt>0</asrwt>
<pdfrwt beam="1">  1       21 0.20348519E+00 0.44991795E+03</pdfrwt>
<pdfrwt beam="2">  1       21 0.53784360E-02 0.44991795E+03</pdfrwt>
<totfact> 0.26841182E+04</totfact>
</mgrwt>
</event>
<event>
 7    0  0.4709932E-002  0.4617787E+03  0.7546771E-02  0.1024267E+00
         21   -1    0    0  502  501  0.00000000000E+00  0.00000000000E+00  0.19669071845E+02  0.19669071845E+02  0.00000000000E+00 0. -1.
         21   -1    0    0  501  502 -0.00000000000E+00 -0.00000000000E+00 -0.27103406396E+04  0.27103406396E+04  0.00000000000E+00 0. -1.
      99926    2    1    2    0    0  0.00000000000E+00  0.71054273576E-14 -0.26906715677E+04  0.27300097114E+04  0.46177866890E+03 0.  0.
      99925    2    3    3    0    0 -0.56264099721E+02  0.45821379083E+02 -0.22436634449E+04  0.22601916427E+04  0.26301209127E+03 0.  0.
         25    1    4    4    0    0 -0.38960176892E+02  0.54200327791E+02 -0.97946106940E+03  0.98967018016E+03  0.12509000000E+03 0.  0.
         25    1    3    3    0    0  0.56264099721E+02 -0.45821379083E+02 -0.44700812283E+03  0.46981806870E+03  0.12509000000E+03 0.  0.
         25    1    4    4    0    0 -0.17303922830E+02 -0.83789487079E+01 -0.12642023755E+04  0.12705214626E+04  0.12509000000E+03 0.  0.
<mgrwt>
<rscale>  2 0.46177867E+03</rscale>
<asrwt>0</asrwt>
<pdfrwt beam="1">  1       21 0.28925129E-02 0.46177867E+03</pdfrwt>
<pdfrwt beam="2">  1       21 0.39857919E+00 0.46177867E+03</pdfrwt>
<totfact> 0.47955074E+03</totfact>
</mgrwt>
</event>
<event>
 7    0  0.4709932E-002  0.4541234E+03  0.7546771E-02  0.1026500E+00
         21   -1    0    0  502  501  0.00000000000E+00  0.00000000000E+00  0.38445975408E+02  0.38445975408E+02  0.00000000000E+00 0. -1.
         21   -1    0    0  501  502 -0.00000000000E+00 -0.00000000000E+00 -0.13410247536E+04  0.13410247536E+04  0.00000000000E+00 0. -1.
      99926    2    1    2    0    0  0.14210854715E-13  0.71054273576E-14 -0.13025787782E+04  0.13794707291E+04  0.45412335197E+03 0.  0.
      99925    2    3    3    0    0 -0.99800989555E+02 -0.32802507642E+02 -0.69894729187E+03  0.75412704639E+03  0.26295254942E+03 0.  0.
         25    1    3    3    0    0  0.99800989555E+02  0.32802507642E+02 -0.60363148636E+03  0.62534368267E+03  0.12509000000E+03 0.  0.
         25    1    4    4    0    0 -0.74115608205E+02 -0.49913501943E+02 -0.40442132515E+03  0.43265297571E+03  0.12509000000E+03 0.  0.
         25    1    4    4    0    0 -0.25685381349E+02  0.17110994301E+02 -0.29452596673E+03  0.32147407068E+03  0.12509000000E+03 0.  0.
<mgrwt>
<rscale>  2 0.45412335E+03</rscale>
<asrwt>0</asrwt>
<pdfrwt beam="1">  1       21 0.56538197E-02 0.45412335E+03</pdfrwt>
<pdfrwt beam="2">  1       21 0.19720953E+00 0.45412335E+03</pdfrwt>
<totfact> 0.27068201E+04</totfact>
</mgrwt>
</event>
<event>
 7    0  0.4709932E-002  0.4570414E+03  0.7546771E-02  0.1025643E+00
         21   -1    0    0  502  501  0.00000000000E+00  0.00000000000E+00  0.82518829556E+02  0.82518829556E+02  0.00000000000E+00 0.  1.
         21   -1    0    0  501  502 -0.00000000000E+00 -0.00000000000E+00 -0.63284604685E+03  0.63284604685E+03  0.00000000000E+00 0.  1.
      99926    2    1    2    0    0  0.00000000000E+00  0.00000000000E+00 -0.55032721729E+03  0.71536487640E+03  0.45704142077E+03 0.  0.
      99925    2    3    3    0    0 -0.86359532455E+02 -0.61242688768E+02 -0.41659726175E+03  0.50384692236E+03  0.26286842127E+03 0.  0.
         25    1    4    4    0    0 -0.39680042019E+02 -0.47712792620E+02 -0.27700028348E+03  0.31020586948E+03  0.12509000000E+03 0.  0.
         25    1    4    4    0    0 -0.46679490435E+02 -0.13529896148E+02 -0.13959697827E+03  0.19364105288E+03  0.12509000000E+03 0.  0.
         25    1    3    3    0    0  0.86359532455E+02  0.61242688768E+02 -0.13372995554E+03  0.21151795404E+03  0.12509000000E+03 0.  0.
<mgrwt>
<rscale>  2 0.45704142E+03</rscale>
<asrwt>0</asrwt>
<pdfrwt beam="1">  1       21 0.12135122E-01 0.45704142E+03</pdfrwt>
<pdfrwt beam="2">  1       21 0.93065597E-01 0.45704142E+03</pdfrwt>
<totfact> 0.51248724E+04</totfact>
</mgrwt>
</event>
<event>
 7    0  0.4709932E-002  0.4524705E+03  0.7546771E-02  0.1026988E+00
         21   -1    0    0  502  501  0.00000000000E+00  0.00000000000E+00  0.11793174071E+03  0.11793174071E+03  0.00000000000E+00 0. -1.
         21   -1    0    0  501  502 -0.00000000000E+00 -0.00000000000E+00 -0.43400011624E+03  0.43400011624E+03  0.00000000000E+00 0. -1.
      99926    2    1    2    0    0  0.00000000000E+00  0.14210854715E-13 -0.31606837553E+03  0.55193185695E+03  0.45247050368E+03 0.  0.
      99925    2    3    3    0    0  0.82128049847E+02 -0.74114060162E+02 -0.19254392165E+03  0.34422121858E+03  0.26301554150E+03 0.  0.
         25    1    4    4    0    0  0.22722088266E+02 -0.28231285376E+02 -0.13448820025E+03  0.18721079797E+03  0.12509000000E+03 0.  0.
         25    1    3    3    0    0 -0.82128049847E+02  0.74114060162E+02 -0.12352445388E+03  0.20771063837E+03  0.12509000000E+03 0.  0.
         25    1    4    4    0    0  0.59405961580E+02 -0.45882774786E+02 -0.58055721401E+02  0.15701042061E+03  0.12509000000E+03 0.  0.
<mgrwt>
<rscale>  2 0.45247050E+03</rscale>
<asrwt>0</asrwt>
<pdfrwt beam="1">  1       21 0.17342903E-01 0.45247050E+03</pdfrwt>
<pdfrwt beam="2">  1       21 0.63823546E-01 0.45247050E+03</pdfrwt>
<totfact> 0.62990163E+04</totfact>
</mgrwt>
</event>
<event>
 7    0  0.4709932E-002  0.4577882E+03  0.7546771E-02  0.1025425E+00
         21   -1    0    0  502  501  0.00000000000E+00  0.00000000000E+00  0.12260395609E+03  0.12260395609E+03  0.00000000000E+00 0. -1.
         21   -1    0    0  501  502 -0.00000000000E+00 -0.00000000000E+00 -0.42733130073E+03  0.42733130073E+03  0.00000000000E+00 0. -1.
      99926    2    1    2    0    0 -0.14210854715E-13 -0.17763568394E-14 -0.30472734464E+03  0.54993525682E+03  0.45778819570E+03 0.  0.
      99925    2    3    3    0    0  0.10355565130E+03 -0.13869366052E+02 -0.13140100007E+03  0.31201581237E+03  0.26300477584E+03 0.  0.
         25    1    3    3    0    0 -0.10355565130E+03  0.13869366052E+02 -0.17332634456E+03  0.23791944445E+03  0.12509000000E+03 0.  0.
         25    1    4    4    0    0  0.17420114972E+02  0.18656588787E+02 -0.58084510733E+02  0.14025992727E+03  0.12509000000E+03 0.  0.
         25    1    4    4    0    0  0.86135536323E+02 -0.32525954839E+02 -0.73316489342E+02  0.17175588510E+03  0.12509000000E+03 0.  0.
<mgrwt>
<rscale>  2 0.45778820E+03</rscale>
<asrwt>0</asrwt>
<pdfrwt beam="1">  1       21 0.18029993E-01 0.45778820E+03</pdfrwt>
<pdfrwt beam="2">  1       21 0.62842840E-01 0.45778820E+03</pdfrwt>
<totfact> 0.60524521E+04</totfact>
</mgrwt>
</event>
<event>
 7    0  0.4709932E-002  0.4517831E+03  0.7546771E-02  0.1027192E+00
         21   -1    0    0  502  501  0.00000000000E+00  0.00000000000E+00  0.15704802966E+04  0.15704802966E+04  0.00000000000E+00 0.  1.
         21   -1    0    0  501  502 -0.00000000000E+00 -0.00000000000E+00 -0.32491336123E+02  0.32491336123E+02  0.00000000000E+00 0.  1.
      99926    2    1    2    0    0 -0.88817841970E-15 -0.14210854715E-13  0.15379889604E+04  0.16029716327E+04  0.45178314794E+03 0.  0.
      99925    2    3    3    0    0 -0.50133808345E+01 -0.10217938871E+03  0.11153843470E+04  0.11505250294E+04  0.26298258530E+03 0.  0.
         25    1    3    3    0    0  0.50133808345E+01  0.10217938871E+03  0.42260461341E+03  0.45244660330E+03  0.12509000000E+03 0.  0.
         25    1    4    4    0    0 -0.34497038822E+02 -0.34258852371E+02  0.61388662302E+03  0.62838523907E+03  0.12509000000E+03 0.  0.
         25    1    4    4    0    0  0.29483657987E+02 -0.67920536339E+02  0.50149772400E+03  0.52213979031E+03  0.12509000000E+03 0.  0.
<mgrwt>
<rscale>  2 0.45178315E+03</rscale>
<asrwt>0</asrwt>
<pdfrwt beam="1">  1       21 0.23095293E+00 0.45178315E+03</pdfrwt>
<pdfrwt beam="2">  1       21 0.47781387E-02 0.45178315E+03</pdfrwt>
<totfact> 0.21904791E+04</totfact>
</mgrwt>
</event>
<event>
 7    0  0.4709932E-002  0.4461219E+03  0.7546771E-02  0.1028885E+00
         21   -1    0    0  502  501  0.00000000000E+00  0.00000000000E+00  0.43391990372E+03  0.43391990372E+03  0.00000000000E+00 0.  1.
         21   -1    0    0  501  502 -0.00000000000E+00 -0.00000000000E+00 -0.11466674623E+03  0.11466674623E+03  0.00000000000E+00 0.  1.
      99926    2    1    2    0    0  0.00000000000E+00  0.00000000000E+00  0.31925315749E+03  0.54858664996E+03  0.44612188239E+03 0.  0.
      99925    2    3    3    0    0 -0.70378321894E+02 -0.51175374833E+02  0.13152143545E+03  0.30679596622E+03  0.26316126183E+03 0.  0.
         25    1    4    4    0    0 -0.54193052958E+02 -0.22497853313E+02  0.10789296778E+03  0.17530385332E+03  0.12509000000E+03 0.  0.
         25    1    3    3    0    0  0.70378321894E+02  0.51175374833E+02  0.18773172204E+03  0.24179068373E+03  0.12509000000E+03 0.  0.
         25    1    4    4    0    0 -0.16185268937E+02 -0.28677521521E+02  0.23628467672E+02  0.13149211290E+03  0.12509000000E+03 0.  0.
<mgrwt>
<rscale>  2 0.44612188E+03</rscale>
<asrwt>0</asrwt>
<pdfrwt beam="1">  1       21 0.63811750E-01 0.44612188E+03</pdfrwt>
<pdfrwt beam="2">  1       21 0.16862757E-01 0.44612188E+03</pdfrwt>
<totfact> 0.66510297E+04</totfact>
</mgrwt>
</event>
<event>
 7    0  0.4709932E-002  0.4393887E+03  0.7546771E-02  0.1030935E+00
         21   -1    0    0  502  501  0.00000000000E+00  0.00000000000E+00  0.22603273374E+03  0.22603273374E+03  0.00000000000E+00 0. -1.
         21   -1    0    0  501  502 -0.00000000000E+00 -0.00000000000E+00 -0.21353368257E+03  0.21353368257E+03  0.00000000000E+00 0. -1.
      99926    2    1    2    0    0  0.00000000000E+00  0.00000000000E+00  0.12499051170E+02  0.43956641630E+03  0.43938867539E+03 0.  0.
      99925    2    3    3    0    0 -0.29241800202E+02  0.92841149557E+02  0.15915496744E+02  0.28103016767E+03  0.26315411867E+03 0.  0.
         25    1    4    4    0    0 -0.23592917216E+02  0.87572411644E+02  0.18938496374E+02  0.15566543537E+03  0.12509000000E+03 0.  0.
         25    1    3    3    0    0  0.29241800202E+02 -0.92841149557E+02 -0.34164455746E+01  0.15853624863E+03  0.12509000000E+03 0.  0.
         25    1    4    4    0    0 -0.56488829861E+01  0.52687379127E+01 -0.30229996293E+01  0.12536473230E+03  0.12509000000E+03 0.  0.
<mgrwt>
<rscale>  2 0.43938868E+03</rscale>
<asrwt>0</asrwt>
<pdfrwt beam="1">  1       21 0.33240108E-01 0.43938868E+03</pdfrwt>
<pdfrwt beam="2">  1       21 0.31402012E-01 0.43938868E+03</pdfrwt>
<totfact> 0.79093984E+04</totfact>
</mgrwt>
</event>
<event>
 7    0  0.4709932E-002  0.4508565E+03  0.7546771E-02  0.1027467E+00
         21   -1    0    0  502  501  0.00000000000E+00  0.00000000000E+00  0.22639477122E+03  0.22639477122E+03  0.00000000000E+00 0. -1.
         21   -1    0    0  501  502 -0.00000000000E+00 -0.00000000000E+00 -0.22446581204E+03  0.22446581204E+03  0.00000000000E+00 0. -1.
      99926    2    1    2    0    0  0.71054273576E-14  0.00000000000E+00  0.19289591800E+01  0.45086058326E+03  0.45085645681E+03 0.  0.
      99925    2    3    3    0    0 -0.56763416480E+02  0.18151621324E+02 -0.90315430355E+02  0.28440307424E+03  0.26301457159E+03 0.  0.
         25    1    4    4    0    0 -0.52869896902E+02 -0.15383843125E+02 -0.23689128897E+02  0.13871038734E+03  0.12509000000E+03 0.  0.
         25    1    4    4    0    0 -0.38935195778E+01  0.33535464449E+02 -0.66626301458E+02  0.14569268690E+03  0.12509000000E+03 0.  0.
         25    1    3    3    0    0  0.56763416480E+02 -0.18151621324E+02  0.92244389535E+02  0.16645750902E+03  0.12509000000E+03 0.  0.
<mgrwt>
<rscale>  2 0.45085646E+03</rscale>
<asrwt>0</asrwt>
<pdfrwt beam="1">  1       21 0.33293349E-01 0.45085646E+03</pdfrwt>
<pdfrwt beam="2">  1       21 0.33009678E-01 0.45085646E+03</pdfrwt>
<totfact> 0.71174268E+04</totfact>
</mgrwt>
</event>
<event>
 7    0  0.4709932E-002  0.4582179E+03  0.7546771E-02  0.1025299E+00
         21   -1    0    0  502  501  0.00000000000E+00  0.00000000000E+00  0.29408925274E+03  0.29408925274E+03  0.00000000000E+00 0. -1.
         21   -1    0    0  501  502 -0.00000000000E+00 -0.00000000000E+00 -0.17848631724E+03  0.17848631724E+03  0.00000000000E+00 0. -1.
      99926    2    1    2    0    0  0.00000000000E+00 -0.17763568394E-14  0.11560293551E+03  0.47257556998E+03  0.45821788556E+03 0.  0.
      99925    2    3    3    0    0  0.74363940569E+02  0.13869753812E+02  0.16342541282E+03  0.31876769254E+03  0.26302587424E+03 0.  0.
         25    1    4    4    0    0  0.32892627087E+02  0.45794537263E+02  0.94968440299E+02  0.16686994131E+03  0.12509000000E+03 0.  0.
         25    1    3    3    0    0 -0.74363940569E+02 -0.13869753812E+02 -0.47822477319E+02  0.15380787745E+03  0.12509000000E+03 0.  0.
         25    1    4    4    0    0  0.41471313483E+02 -0.31924783451E+02  0.68456972526E+02  0.15189775123E+03  0.12509000000E+03 0.  0.
<mgrwt>
<rscale>  2 0.45821789E+03</rscale>
<asrwt>0</asrwt>
<pdfrwt beam="1">  1       21 0.43248420E-01 0.45821789E+03</pdfrwt>
<pdfrwt beam="2">  1       21 0.26247988E-01 0.45821789E+03</pdfrwt>
<totfact> 0.65555114E+04</totfact>
</mgrwt>
</event>
<event>
 7    0  0.4709932E-002  0.4638526E+03  0.7546771E-02  0.1023670E+00
         21   -1    0    0  502  501  0.00000000000E+00  0.00000000000E+00  0.92043611563E+03  0.92043611563E+03  0.00000000000E+00 0. -1.
         21   -1    0    0  501  502 -0.00000000000E+00 -0.00000000000E+00 -0.58439480746E+02  0.58439480746E+02  0.00000000000E+00 0. -1.
      99926    2    1    2    0    0  0.14210854715E-13  0.00000000000E+00  0.86199663489E+03  0.97887559638E+03  0.46385260011E+03 0.  0.
      99925    2    3    3    0    0 -0.91487958160E+02  0.64699202875E+02  0.63533802633E+03  0.69678045946E+03  0.26323481465E+03 0.  0.
         25    1    3    3    0    0  0.91487958160E+02 -0.64699202875E+02  0.22665860856E+03  0.28209513692E+03  0.12509000000E+03 0.  0.
         25    1    4    4    0    0 -0.21494923241E+02  0.14319759937E+02  0.21822510038E+03  0.25285725180E+03  0.12509000000E+03 0.  0.
         25    1    4    4    0    0 -0.69993034919E+02  0.50379442938E+02  0.41711292595E+03  0.44392320766E+03  0.12509000000E+03 0.  0.
<mgrwt>
<rscale>  2 0.46385260E+03</rscale>
<asrwt>0</asrwt>
<pdfrwt beam="1">  1       21 0.13535824E+00 0.46385260E+03</pdfrwt>
<pdfrwt beam="2">  1       21 0.85940418E-02 0.46385260E+03</pdfrwt>
<totfact> 0.37341170E+04</totfact>
</mgrwt>
</event>
<event>
 7    0  0.4709932E-002  0.4556823E+03  0.7546771E-02  0.1026041E+00
         21   -1    0    0  502  501  0.00000000000E+00  0.00000000000E+00  0.35396411909E+03  0.35396411909E+03  0.00000000000E+00 0.  1.
         21   -1    0    0  501  502 -0.00000000000E+00 -0.00000000000E+00 -0.14665776075E+03  0.14665776075E+03  0.00000000000E+00 0.  1.
      99926    2    1    2    0    0  0.00000000000E+00  0.00000000000E+00  0.20730635833E+03  0.50062187984E+03  0.45568228007E+03 0.  0.
      99925    2    3    3    0    0 -0.48835608944E+02  0.74596871143E+02  0.52046646565E+02  0.28221241099E+03  0.26265068363E+03 0.  0.
         25    1    4    4    0    0 -0.39863739145E+02  0.41053059663E+02 -0.10799677281E+02  0.13798047882E+03  0.12509000000E+03 0.  0.
         25    1    3    3    0    0  0.48835608944E+02 -0.74596871143E+02  0.15525971177E+03  0.21840946885E+03  0.12509000000E+03 0.  0.
         25    1    4    4    0    0 -0.89718697988E+01  0.33543811480E+02  0.62846323847E+02  0.14423193217E+03  0.12509000000E+03 0.  0.
<mgrwt>
<rscale>  2 0.45568228E+03</rscale>
<asrwt>0</asrwt>
<pdfrwt beam="1">  1       21 0.52053547E-01 0.45568228E+03</pdfrwt>
<pdfrwt beam="2">  1       21 0.21567318E-01 0.45568228E+03</pdfrwt>
<totfact> 0.64874922E+04</totfact>
</mgrwt>
</event>
<event>
 7    0  0.4709932E-002  0.4862249E+03  0.7546771E-02  0.1017438E+00
         21   -1    0    0  502  501  0.00000000000E+00  0.00000000000E+00  0.10055019712E+04  0.10055019712E+04  0.00000000000E+00 0. -1.
         21   -1    0    0  501  502 -0.00000000000E+00 -0.00000000000E+00 -0.58780245616E+02  0.58780245616E+02  0.00000000000E+00 0. -1.
      99926    2    1    2    0    0 -0.35527136788E-14  0.71054273576E-14  0.94672172554E+03  0.10642822168E+04  0.48622485676E+03 0.  0.
      99925    2    3    3    0    0  0.26712968055E+02 -0.36199753225E+02  0.28939708472E+03  0.39365027872E+03  0.26303205984E+03 0.  0.
         25    1    3    3    0    0 -0.26712968055E+02  0.36199753225E+02  0.65732464083E+03  0.67063193805E+03  0.12509000000E+03 0.  0.
         25    1    4    4    0    0 -0.77070403650E+01  0.75526425117E+00  0.96088257785E+02  0.15792539466E+03  0.12509000000E+03 0.  0.
         25    1    4    4    0    0  0.34420008420E+02 -0.36955017476E+02  0.19330882693E+03  0.23572488406E+03  0.12509000000E+03 0.  0.
<mgrwt>
<rscale>  2 0.48622486E+03</rscale>
<asrwt>0</asrwt>
<pdfrwt beam="1">  1       21 0.14786793E+00 0.48622486E+03</pdfrwt>
<pdfrwt beam="2">  1       21 0.86441544E-02 0.48622486E+03</pdfrwt>
<totfact> 0.29015048E+04</totfact>
</mgrwt>
</event>
<event>
 7    0  0.4709932E-002  0.4691468E+03  0.7546771E-02  0.1022161E+00
         21   -1    0    0  502  501  0.00000000000E+00  0.00000000000E+00  0.44482601710E+02  0.44482601710E+02  0.00000000000E+00 0.  1.
         21   -1    0    0  501  502 -0.00000000000E+00 -0.00000000000E+00 -0.12369933655E+04  0.12369933655E+04  0.00000000000E+00 0.  1.
      99926    2    1    2    0    0  0.00000000000E+00 -0.14210854715E-13 -0.11925107638E+04  0.12814759672E+04  0.46914681368E+03 0.  0.
      99925    2    3    3    0    0  0.16176615167E+02  0.12192985042E+03 -0.66698800869E+03  0.72744506055E+03  0.26301091439E+03 0.  0.
         25    1    4    4    0    0  0.12964682623E+02  0.33129238568E+02 -0.38561448022E+03  0.40695413120E+03  0.12509000000E+03 0.  0.
         25    1    3    3    0    0 -0.16176615167E+02 -0.12192985042E+03 -0.52552275510E+03  0.55403090666E+03  0.12509000000E+03 0.  0.
         25    1    4    4    0    0  0.32119325432E+01  0.88800611852E+02 -0.28137352846E+03  0.32049092935E+03  0.12509000000E+03 0.  0.
<mgrwt>
<rscale>  2 0.46914681E+03</rscale>
<asrwt>0</asrwt>
<pdfrwt beam="1">  1       21 0.65415595E-02 0.46914681E+03</pdfrwt>
<pdfrwt beam="2">  1       21 0.18191078E+00 0.46914681E+03</pdfrwt>
<totfact> 0.26605486E+04</totfact>
</mgrwt>
</event>
<event>
 7    0  0.4709932E-002  0.4544076E+03  0.7546771E-02  0.1026416E+00
         21   -1    0    0  502  501  0.00000000000E+00  0.00000000000E+00  0.48277635947E+02  0.48277635947E+02  0.00000000000E+00 0.  1.
         21   -1    0    0  501  502 -0.00000000000E+00 -0.00000000000E+00 -0.10692644186E+04  0.10692644186E+04  0.00000000000E+00 0.  1.
      99926    2    1    2    0    0  0.00000000000E+00 -0.71054273576E-14 -0.10209867827E+04  0.11175420546E+04  0.45440756303E+03 0.  0.
      99925    2    3    3    0    0 -0.19079920171E+02  0.37614285104E+02 -0.38633090582E+03  0.46930254025E+03  0.26308635027E+03 0.  0.
         25    1    3    3    0    0  0.19079920171E+02 -0.37614285104E+02 -0.63465587687E+03  0.64823951434E+03  0.12509000000E+03 0.  0.
         25    1    4    4    0    0 -0.30774592452E+01  0.59293545147E+02 -0.20371681205E+03  0.24631939197E+03  0.12509000000E+03 0.  0.
         25    1    4    4    0    0 -0.16002460926E+02 -0.21679260043E+02 -0.18261409377E+03  0.22298314828E+03  0.12509000000E+03 0.  0.
<mgrwt>
<rscale>  2 0.45440756E+03</rscale>
<asrwt>0</asrwt>
<pdfrwt beam="1">  1       21 0.70996534E-02 0.45440756E+03</pdfrwt>
<pdfrwt beam="2">  1       21 0.15724475E+00 0.45440756E+03</pdfrwt>
<totfact> 0.35046302E+04</totfact>
</mgrwt>
</event>
<event>
 6    0  0.4709932E-002  0.4608059E+03  0.7546771E-02  0.1024548E+00
         21   -1    0    0  502  501  0.00000000000E+00  0.00000000000E+00  0.12414779280E+04  0.12414779280E+04  0.00000000000E+00 0. -1.
         21   -1    0    0  501  502 -0.00000000000E+00 -0.00000000000E+00 -0.42759932437E+02  0.42759932437E+02  0.00000000000E+00 0. -1.
      99926    2    1    2    0    0 -0.35527136788E-14 -0.14210854715E-13  0.11987179956E+04  0.12842378605E+04  0.46080586943E+03 0.  0.
         25    1    3    3    0    0  0.13610236031E+01  0.11322223574E+03  0.44512374930E+03  0.47602918749E+03  0.12509000000E+03 0.  0.
         25    1    3    3    0    0  0.32322773191E+02 -0.50212589455E+02  0.47161044395E+03  0.49155872971E+03  0.12509000000E+03 0.  0.
         25    1    3    3    0    0 -0.33683796794E+02 -0.63009646281E+02  0.28198380233E+03  0.31664994326E+03  0.12509000000E+03 0.  0.
<mgrwt>
<rscale>  2 0.46080587E+03</rscale>
<asrwt>0</asrwt>
<pdfrwt beam="1">  1       21 0.18257026E+00 0.46080587E+03</pdfrwt>
<pdfrwt beam="2">  1       21 0.62882262E-02 0.46080587E+03</pdfrwt>
<totfact> 0.28276697E+04</totfact>
</mgrwt>
</event>
<event>
 7    0  0.4709932E-002  0.4514485E+03  0.7546771E-02  0.1027291E+00
         21   -1    0    0  502  501  0.00000000000E+00  0.00000000000E+00  0.20321701408E+03  0.20321701408E+03  0.00000000000E+00 0. -1.
         21   -1    0    0  501  502 -0.00000000000E+00 -0.00000000000E+00 -0.25072430596E+03  0.25072430596E+03  0.00000000000E+00 0. -1.
      99926    2    1    2    0    0  0.00000000000E+00  0.00000000000E+00 -0.47507291878E+02  0.45394132004E+03  0.45144853445E+03 0.  0.
      99925    2    3    3    0    0 -0.91296944278E+02  0.18977568139E+02  0.28380857649E+02  0.28044261841E+03  0.26295875915E+03 0.  0.
         25    1    3    3    0    0  0.91296944278E+02 -0.18977568139E+02 -0.75888149526E+02  0.17349870162E+03  0.12509000000E+03 0.  0.
         25    1    4    4    0    0 -0.18962690061E+02  0.40519606694E+02  0.16381415426E+02  0.13385544820E+03  0.12509000000E+03 0.  0.
         25    1    4    4    0    0 -0.72334254218E+02 -0.21542038555E+02  0.11999442223E+02  0.14658717022E+03  0.12509000000E+03 0.  0.
<mgrwt>
<rscale>  2 0.45144853E+03</rscale>
<asrwt>0</asrwt>
<pdfrwt beam="1">  1       21 0.29884855E-01 0.45144853E+03</pdfrwt>
<pdfrwt beam="2">  1       21 0.36871222E-01 0.45144853E+03</pdfrwt>
<totfact> 0.70602843E+04</totfact>
</mgrwt>
</event>
<event>
 7    0  0.4709932E-002  0.4435674E+03  0.7546771E-02  0.1029658E+00
         21   -1    0    0  502  501  0.00000000000E+00  0.00000000000E+00  0.19681164905E+02  0.19681164905E+02  0.00000000000E+00 0.  1.
         21   -1    0    0  501  502 -0.00000000000E+00 -0.00000000000E+00 -0.24992423073E+04  0.24992423073E+04  0.00000000000E+00 0.  1.
      99926    2    1    2    0    0 -0.17763568394E-14  0.00000000000E+00 -0.24795611424E+04  0.25189234722E+04  0.44356735673E+03 0.  0.
      99925    2    3    3    0    0  0.39456235528E+01  0.97061993341E+02 -0.13855995848E+04  0.14135565666E+04  0.26233444108E+03 0.  0.
         25    1    4    4    0    0 -0.25131919605E+02  0.76044171992E+02 -0.67637127524E+03  0.69248822339E+03  0.12509000000E+03 0.  0.
         25    1    3    3    0    0 -0.39456235528E+01 -0.97061993341E+02 -0.10939615576E+04  0.11053669056E+04  0.12509000000E+03 0.  0.
         25    1    4    4    0    0  0.29077543158E+02  0.21017821349E+02 -0.70922830961E+03  0.72106834321E+03  0.12509000000E+03 0.  0.
<mgrwt>
<rscale>  2 0.44356736E+03</rscale>
<asrwt>0</asrwt>
<pdfrwt beam="1">  1       21 0.28942892E-02 0.44356736E+03</pdfrwt>
<pdfrwt beam="2">  1       21 0.36753560E+00 0.44356736E+03</pdfrwt>
<totfact> 0.75928785E+03</totfact>
</mgrwt>
</event>
<event>
 7    0  0.4709932E-002  0.4599439E+03  0.7546771E-02  0.1024797E+00
         21   -1    0    0  502  501  0.00000000000E+00  0.00000000000E+00  0.17958474616E+03  0.17958474616E+03  0.00000000000E+00 0. -1.
         21   -1    0    0  501  502 -0.00000000000E+00 -0.00000000000E+00 -0.29449663077E+03  0.29449663077E+03  0.00000000000E+00 0. -1.
      99926    2    1    2    0    0  0.00000000000E+00  0.00000000000E+00 -0.11491188461E+03  0.47408137693E+03  0.45994392129E+03 0.  0.
      99925    2    3    3    0    0 -0.92467250727E+02  0.71056547629E+02 -0.88325546711E+02  0.30101038895E+03  0.26307152381E+03 0.  0.
         25    1    3    3    0    0  0.92467250727E+02 -0.71056547629E+02 -0.26586337895E+02  0.17307098798E+03  0.12509000000E+03 0.  0.
         25    1    4    4    0    0 -0.28263472026E+02  0.58982764930E+02 -0.73403301432E+02  0.15910167558E+03  0.12509000000E+03 0.  0.
         25    1    4    4    0    0 -0.64203778701E+02  0.12073782699E+02 -0.14922245279E+02  0.14190871338E+03  0.12509000000E+03 0.  0.
<mgrwt>
<rscale>  2 0.45994392E+03</rscale>
<asrwt>0</asrwt>
<pdfrwt beam="1">  1       21 0.26409521E-01 0.45994392E+03</pdfrwt>
<pdfrwt beam="2">  1       21 0.43308328E-01 0.45994392E+03</pdfrwt>
<totfact> 0.64563718E+04</totfact>
</mgrwt>
</event>
<event>
 7    0  0.4709932E-002  0.4514571E+03  0.7546771E-02  0.1027288E+00
         21   -1    0    0  502  501  0.00000000000E+00  0.00000000000E+00  0.91100153917E+02  0.91100153917E+02  0.00000000000E+00 0.  1.
         21   -1    0    0  501  502 -0.00000000000E+00 -0.00000000000E+00 -0.55931176926E+03  0.55931176926E+03  0.00000000000E+00 0.  1.
      99926    2    1    2    0    0  0.00000000000E+00  0.71054273576E-14 -0.46821161534E+03  0.65041192318E+03  0.45145714422E+03 0.  0.
      99925    2    3    3    0    0 -0.77198054554E+02 -0.32757230554E+02 -0.39771616126E+03  0.48412995504E+03  0.26300397841E+03 0.  0.
         25    1    4    4    0    0 -0.76683795970E+02 -0.74909149269E+00 -0.20226704121E+03  0.24988083113E+03  0.12509000000E+03 0.  0.
         25    1    3    3    0    0  0.77198054554E+02  0.32757230554E+02 -0.70495454081E+02  0.16628196813E+03  0.12509000000E+03 0.  0.
         25    1    4    4    0    0 -0.51425858339E+00 -0.32008139062E+02 -0.19544912005E+03  0.23424912392E+03  0.12509000000E+03 0.  0.
<mgrwt>
<rscale>  2 0.45145714E+03</rscale>
<asrwt>0</asrwt>
<pdfrwt beam="1">  1       21 0.13397081E-01 0.45145714E+03</pdfrwt>
<pdfrwt beam="2">  1       21 0.82251733E-01 0.45145714E+03</pdfrwt>
<totfact> 0.57261416E+04</totfact>
</mgrwt>
</event>
<event>
 7    0  0.4709932E-002  0.4595426E+03  0.7546771E-02  0.1024914E+00
         21   -1    0    0  502  501  0.00000000000E+00  0.00000000000E+00  0.24740700211E+03  0.24740700211E+03  0.00000000000E+00 0. -1.
         21   -1    0    0  501  502 -0.00000000000E+00 -0.00000000000E+00 -0.21339270924E+03  0.21339270924E+03  0.00000000000E+00 0. -1.
      99926    2    1    2    0    0  0.00000000000E+00  0.00000000000E+00  0.34014292870E+02  0.46079971135E+03  0.45954260071E+03 0.  0.
      99925    2    3    3    0    0  0.30823262602E+02  0.88035924411E+02  0.92837694813E+02  0.29404210817E+03  0.26294776343E+03 0.  0.
         25    1    4    4    0    0  0.41242160518E+02  0.29844564588E+02  0.16590115612E+02  0.13606746075E+03  0.12509000000E+03 0.  0.
         25    1    3    3    0    0 -0.30823262602E+02 -0.88035924411E+02 -0.58823401943E+02  0.16675760319E+03  0.12509000000E+03 0.  0.
         25    1    4    4    0    0 -0.10418897916E+02  0.58191359823E+02  0.76247579201E+02  0.15797464741E+03  0.12509000000E+03 0.  0.
<mgrwt>
<rscale>  2 0.45954260E+03</rscale>
<asrwt>0</asrwt>
<pdfrwt beam="1">  1       21 0.36383382E-01 0.45954260E+03</pdfrwt>
<pdfrwt beam="2">  1       21 0.31381281E-01 0.45954260E+03</pdfrwt>
<totfact> 0.65708956E+04</totfact>
</mgrwt>
</event>
<event>
 7    0  0.4709932E-002  0.4513477E+03  0.7546771E-02  0.1027321E+00
         21   -1    0    0  502  501  0.00000000000E+00  0.00000000000E+00  0.31842189425E+03  0.31842189425E+03  0.00000000000E+00 0. -1.
         21   -1    0    0  501  502 -0.00000000000E+00 -0.00000000000E+00 -0.15994089347E+03  0.15994089347E+03  0.00000000000E+00 0. -1.
      99926    2    1    2    0    0  0.35527136788E-14 -0.11102230246E-14  0.15848100079E+03  0.47836278772E+03  0.45134768091E+03 0.  0.
      99925    2    3    3    0    0 -0.20431046597E+01 -0.52179735588E+00 -0.16293657588E+02  0.26342527154E+03  0.26291242622E+03 0.  0.
         25    1    4    4    0    0 -0.31203340469E+02  0.22014338526E+02 -0.23225343483E+02  0.13283525224E+03  0.12509000000E+03 0.  0.
         25    1    3    3    0    0  0.20431046597E+01  0.52179735588E+00  0.17477465837E+03  0.21493751617E+03  0.12509000000E+03 0.  0.
         25    1    4    4    0    0  0.29160235809E+02 -0.22536135882E+02  0.69316858948E+01  0.13059001931E+03  0.12509000000E+03 0.  0.
<mgrwt>
<rscale>  2 0.45134768E+03</rscale>
<asrwt>0</asrwt>
<pdfrwt beam="1">  1       21 0.46826749E-01 0.45134768E+03</pdfrwt>
<pdfrwt beam="2">  1       21 0.23520720E-01 0.45134768E+03</pdfrwt>
<totfact> 0.68792261E+04</totfact>
</mgrwt>
</event>
<event>
 7    0  0.4709932E-002  0.4603193E+03  0.7546771E-02  0.1024689E+00
         21   -1    0    0  502  501  0.00000000000E+00  0.00000000000E+00  0.23383938019E+03  0.23383938019E+03  0.00000000000E+00 0. -1.
         21   -1    0    0  501  502 -0.00000000000E+00 -0.00000000000E+00 -0.22653779634E+03  0.22653779634E+03  0.00000000000E+00 0. -1.
      99926    2    1    2    0    0  0.00000000000E+00 -0.71054273576E-14  0.73015838466E+01  0.46037717653E+03  0.46031927132E+03 0.  0.
      99925    2    3    3    0    0 -0.93755729632E+02 -0.60924491770E+02  0.42708695552E+02  0.28890384859E+03  0.26294385431E+03 0.  0.
         25    1    4    4    0    0 -0.10861187233E+02 -0.50278797743E+02  0.17933426891E+02  0.13643694071E+03  0.12509000000E+03 0.  0.
         25    1    3    3    0    0  0.93755729632E+02  0.60924491770E+02 -0.35407111705E+02  0.17147332794E+03  0.12509000000E+03 0.  0.
         25    1    4    4    0    0 -0.82894542399E+02 -0.10645694027E+02  0.24775268661E+02  0.15246690788E+03  0.12509000000E+03 0.  0.
<mgrwt>
<rscale>  2 0.46031927E+03</rscale>
<asrwt>0</asrwt>
<pdfrwt beam="1">  1       21 0.34388144E-01 0.46031927E+03</pdfrwt>
<pdfrwt beam="2">  1       21 0.33314382E-01 0.46031927E+03</pdfrwt>
<totfact> 0.65336287E+04</totfact>
</mgrwt>
</event>
<event>
 7    0  0.4709932E-002  0.4608643E+03  0.7546771E-02  0.1024531E+00
         21   -1    0    0  502  501  0.00000000000E+00  0.00000000000E+00  0.12304643860E+03  0.12304643860E+03  0.00000000000E+00 0.  1.
         21   -1    0    0  501  502 -0.00000000000E+00 -0.00000000000E+00 -0.43153601414E+03  0.43153601414E+03  0.00000000000E+00 0.  1.
      99926    2    1    2    0    0 -0.35527136788E-14  0.00000000000E+00 -0.30848957554E+03  0.55458245275E+03  0.46086427360E+03 0.  0.
      99925    2    3    3    0    0  0.29812651680E+02 -0.95239063728E+02 -0.27014102805E+03  0.39003035566E+03  0.26303655610E+03 0.  0.
         25    1    4    4    0    0 -0.63772294631E+01 -0.99347148231E+01 -0.11879513312E+03  0.17291373389E+03  0.12509000000E+03 0.  0.
         25    1    4    4    0    0  0.36189881143E+02 -0.85304348905E+02 -0.15134589493E+03  0.21711662177E+03  0.12509000000E+03 0.  0.
         25    1    3    3    0    0 -0.29812651680E+02  0.95239063728E+02 -0.38348547495E+02  0.16455209708E+03  0.12509000000E+03 0.  0.
<mgrwt>
<rscale>  2 0.46086427E+03</rscale>
<asrwt>0</asrwt>
<pdfrwt beam="1">  1       21 0.18095064E-01 0.46086427E+03</pdfrwt>
<pdfrwt beam="2">  1       21 0.63461179E-01 0.46086427E+03</pdfrwt>
<totfact> 0.58789459E+04</totfact>
</mgrwt>
</event>
<event>
 7    0  0.4709932E-002  0.4731265E+03  0.7546771E-02  0.1021041E+00
         21   -1    0    0  502  501  0.00000000000E+00  0.00000000000E+00  0.24775110235E+04  0.24775110235E+04  0.00000000000E+00 0.  1.
         21   -1    0    0  501  502 -0.00000000000E+00 -0.00000000000E+00 -0.22588063801E+02  0.22588063801E+02  0.00000000000E+00 0.  1.
      99926    2    1    2    0    0  0.00000000000E+00  0.00000000000E+00  0.24549229597E+04  0.25000990873E+04  0.47312652458E+03 0.  0.
      99925    2    3    3    0    0  0.10587309176E+03  0.73865188194E+02  0.14792771904E+04  0.15080318754E+04  0.26312345722E+03 0.  0.
         25    1    4    4    0    0  0.12696369058E+02  0.49003327868E+02  0.65434038017E+03  0.66811029415E+03  0.12509000000E+03 0.  0.
         25    1    3    3    0    0 -0.10587309176E+03 -0.73865188194E+02  0.97564576934E+03  0.99206721190E+03  0.12509000000E+03 0.  0.
         25    1    4    4    0    0  0.93176722704E+02  0.24861860326E+02  0.82493681019E+03  0.83992158126E+03  0.12509000000E+03 0.  0.
<mgrwt>
<rscale>  2 0.47312652E+03</rscale>
<asrwt>0</asrwt>
<pdfrwt beam="1">  1       21 0.36433967E+00 0.47312652E+03</pdfrwt>
<pdfrwt beam="2">  1       21 0.33217758E-02 0.47312652E+03</pdfrwt>
<totfact> 0.62086916E+03</totfact>
</mgrwt>
</event>
<event>
 7    0  0.4709932E-002  0.4403339E+03  0.7546771E-02  0.1030644E+00
         21   -1    0    0  502  501  0.00000000000E+00  0.00000000000E+00  0.72628608119E+03  0.72628608119E+03  0.00000000000E+00 0. -1.
         21   -1    0    0  501  502 -0.00000000000E+00 -0.00000000000E+00 -0.66741590201E+02  0.66741590201E+02  0.00000000000E+00 0. -1.
      99926    2    1    2    0    0  0.00000000000E+00  0.00000000000E+00  0.65954449099E+03  0.79302767140E+03  0.44033390966E+03 0.  0.
      99925    2    3    3    0    0 -0.56482812967E+02  0.53036788597E+02  0.31036535986E+03  0.41411240010E+03  0.26298139517E+03 0.  0.
         25    1    3    3    0    0  0.56482812967E+02 -0.53036788597E+02  0.34917913113E+03  0.37891527130E+03  0.12509000000E+03 0.  0.
         25    1    4    4    0    0  0.99098310323E+01  0.87927634704E+01  0.14216448788E+03  0.18982562302E+03  0.12509000000E+03 0.  0.
         25    1    4    4    0    0 -0.66392643999E+02  0.44244025127E+02  0.16820087198E+03  0.22428677708E+03  0.12509000000E+03 0.  0.
<mgrwt>
<rscale>  2 0.44033391E+03</rscale>
<asrwt>0</asrwt>
<pdfrwt beam="1">  1       21 0.10680677E+00 0.44033391E+03</pdfrwt>
<pdfrwt beam="2">  1       21 0.98149401E-02 0.44033391E+03</pdfrwt>
<totfact> 0.54063439E+04</totfact>
</mgrwt>
</event>
<event>
 7    0  0.4709932E-002  0.4488622E+03  0.7546771E-02  0.1028062E+00
         21   -1    0    0  502  501  0.00000000000E+00  0.00000000000E+00  0.10213107446E+03  0.10213107446E+03  0.00000000000E+00 0.  1.
         21   -1    0    0  501  502 -0.00000000000E+00 -0.00000000000E+00 -0.49318303628E+03  0.49318303628E+03  0.00000000000E+00 0.  1.
      99926    2    1    2    0    0 -0.14210854715E-13  0.00000000000E+00 -0.39105196182E+03  0.59531411074E+03  0.44886217662E+03 0.  0.
      99925    2    3    3    0    0 -0.90857919715E+02  0.32179758558E+02 -0.18477168555E+03  0.33552619933E+03  0.26295732776E+03 0.  0.
         25    1    4    4    0    0 -0.60704740735E+02  0.52561464450E+02 -0.83301209525E+02  0.17039475550E+03  0.12509000000E+03 0.  0.
         25    1    3    3    0    0  0.90857919715E+02 -0.32179758558E+02 -0.20628027626E+03  0.25978791140E+03  0.12509000000E+03 0.  0.
         25    1    4    4    0    0 -0.30153178981E+02 -0.20381705891E+02 -0.10147047603E+03  0.16513144384E+03  0.12509000000E+03 0.  0.
<mgrwt>
<rscale>  2 0.44886218E+03</rscale>
<asrwt>0</asrwt>
<pdfrwt beam="1">  1       21 0.15019276E-01 0.44886218E+03</pdfrwt>
<pdfrwt beam="2">  1       21 0.72526918E-01 0.44886218E+03</pdfrwt>
<totfact> 0.61916481E+04</totfact>
</mgrwt>
</event>
<event>
 7    0  0.4709932E-002  0.4547444E+03  0.7546771E-02  0.1026317E+00
         21   -1    0    0  502  501  0.00000000000E+00  0.00000000000E+00  0.79205364006E+02  0.79205364006E+02  0.00000000000E+00 0.  1.
         21   -1    0    0  501  502 -0.00000000000E+00 -0.00000000000E+00 -0.65270993288E+03  0.65270993288E+03  0.00000000000E+00 0.  1.
      99926    2    1    2    0    0  0.00000000000E+00  0.00000000000E+00 -0.57350456887E+03  0.73191529689E+03  0.45474444614E+03 0.  0.
      99925    2    3    3    0    0  0.52738059675E+02  0.21399981748E+02 -0.51784675897E+03  0.58364337756E+03  0.26312556743E+03 0.  0.
         25    1    3    3    0    0 -0.52738059675E+02 -0.21399981748E+02 -0.55657809899E+02  0.14827191932E+03  0.12509000000E+03 0.  0.
         25    1    4    4    0    0  0.56032326379E+02  0.24939126742E+02 -0.32655598397E+03  0.35503225263E+03  0.12509000000E+03 0.  0.
         25    1    4    4    0    0 -0.32942667036E+01 -0.35391449934E+01 -0.19129077501E+03  0.22861112493E+03  0.12509000000E+03 0.  0.
<mgrwt>
<rscale>  2 0.45474445E+03</rscale>
<asrwt>0</asrwt>
<pdfrwt beam="1">  1       21 0.11647848E-01 0.45474445E+03</pdfrwt>
<pdfrwt beam="2">  1       21 0.95986754E-01 0.45474445E+03</pdfrwt>
<totfact> 0.51307235E+04</totfact>
</mgrwt>
</event>
<event>
 7    0  0.4709932E-002  0.4382662E+03  0.7546771E-02  0.1031280E+00
         21   -1    0    0  502  501  0.00000000000E+00  0.00000000000E+00  0.13863491779E+04  0.13863491779E+04  0.00000000000E+00 0.  1.
         21   -1    0    0  501  502 -0.00000000000E+00 -0.00000000000E+00 -0.34637246882E+02  0.34637246882E+02  0.00000000000E+00 0.  1.
      99926    2    1    2    0    0  0.00000000000E+00 -0.35527136788E-14  0.13517119310E+04  0.14209864247E+04  0.43826621470E+03 0.  0.
      99925    2    3    3    0    0 -0.88084884873E+02 -0.22587123432E+02  0.75596649954E+03  0.80549535879E+03  0.26280848448E+03 0.  0.
         25    1    3    3    0    0  0.88084884873E+02  0.22587123432E+02  0.59574543143E+03  0.61549106594E+03  0.12509000000E+03 0.  0.
         25    1    4    4    0    0 -0.57263557092E+02 -0.38939678101E+02  0.31765094993E+03  0.34834616058E+03  0.12509000000E+03 0.  0.
         25    1    4    4    0    0 -0.30821327781E+02  0.16352554668E+02  0.43831554961E+03  0.45714919820E+03  0.12509000000E+03 0.  0.
<mgrwt>
<rscale>  2 0.43826621E+03</rscale>
<asrwt>0</asrwt>
<pdfrwt beam="1">  1       21 0.20387484E+00 0.43826621E+03</pdfrwt>
<pdfrwt beam="2">  1       21 0.50937137E-02 0.43826621E+03</pdfrwt>
<totfact> 0.29421986E+04</totfact>
</mgrwt>
</event>
<event>
 7    0  0.4709932E-002  0.4587876E+03  0.7546771E-02  0.1025133E+00
         21   -1    0    0  502  501  0.00000000000E+00  0.00000000000E+00  0.95165525394E+03  0.95165525394E+03  0.00000000000E+00 0. -1.
         21   -1    0    0  501  502 -0.00000000000E+00 -0.00000000000E+00 -0.55294734620E+02  0.55294734620E+02  0.00000000000E+00 0. -1.
      99926    2    1    2    0    0  0.00000000000E+00  0.35527136788E-14  0.89636051932E+03  0.10069499886E+04  0.45878764027E+03 0.  0.
      99925    2    3    3    0    0 -0.11284192501E+03 -0.17089394457E+02  0.61523279126E+03  0.67876459121E+03  0.26302972343E+03 0.  0.
         25    1    4    4    0    0 -0.26884199980E+02 -0.33264830804E+02  0.32460325970E+03  0.35049121741E+03  0.12509000000E+03 0.  0.
         25    1    4    4    0    0 -0.85957725034E+02  0.16175436348E+02  0.29062953156E+03  0.32827337380E+03  0.12509000000E+03 0.  0.
         25    1    3    3    0    0  0.11284192501E+03  0.17089394457E+02  0.28112772807E+03  0.32818539735E+03  0.12509000000E+03 0.  0.
<mgrwt>
<rscale>  2 0.45878764E+03</rscale>
<asrwt>0</asrwt>
<pdfrwt beam="1">  1       21 0.13994929E+00 0.45878764E+03</pdfrwt>
<pdfrwt beam="2">  1       21 0.81315792E-02 0.45878764E+03</pdfrwt>
<totfact> 0.37768017E+04</totfact>
</mgrwt>
</event>
<event>
 7    0  0.4709932E-002  0.4580677E+03  0.7546771E-02  0.1025343E+00
         21   -1    0    0  502  501  0.00000000000E+00  0.00000000000E+00  0.12902924600E+04  0.12902924600E+04  0.00000000000E+00 0.  1.
         21   -1    0    0  501  502 -0.00000000000E+00 -0.00000000000E+00 -0.40654744586E+02  0.40654744586E+02  0.00000000000E+00 0.  1.
      99926    2    1    2    0    0  0.00000000000E+00 -0.71054273576E-14  0.12496377154E+04  0.13309472046E+04  0.45806772600E+03 0.  0.
      99925    2    3    3    0    0  0.37859002180E+02 -0.63523297658E+02  0.52434384881E+03  0.59123968507E+03  0.26298171044E+03 0.  0.
         25    1    4    4    0    0  0.25380426934E+02 -0.12901366735E+02  0.17873118852E+03  0.22000672077E+03  0.12509000000E+03 0.  0.
         25    1    3    3    0    0 -0.37859002180E+02  0.63523297658E+02  0.72529386660E+03  0.73970751950E+03  0.12509000000E+03 0.  0.
         25    1    4    4    0    0  0.12478575246E+02 -0.50621930923E+02  0.34561266029E+03  0.37123296430E+03  0.12509000000E+03 0.  0.
<mgrwt>
<rscale>  2 0.45806773E+03</rscale>
<asrwt>0</asrwt>
<pdfrwt beam="1">  1       21 0.18974886E+00 0.45806773E+03</pdfrwt>
<pdfrwt beam="2">  1       21 0.59786398E-02 0.45806773E+03</pdfrwt>
<totfact> 0.27565645E+04</totfact>
</mgrwt>
</event>
<event>
 7    0  0.4709932E-002  0.4536528E+03  0.7546771E-02  0.1026638E+00
         21   -1    0    0  502  501  0.00000000000E+00  0.00000000000E+00  0.11137342753E+03  0.11137342753E+03  0.00000000000E+00 0. -1.
         21   -1    0    0  501  502 -0.00000000000E+00 -0.00000000000E+00 -0.46196131757E+03  0.46196131757E+03  0.00000000000E+00 0. -1.
      99926    2    1    2    0    0  0.14210854715E-13  0.00000000000E+00 -0.35058789004E+03  0.57333474510E+03  0.45365279817E+03 0.  0.
      99925    2    3    3    0    0  0.71103808192E+02 -0.41175320933E+02 -0.12533669964E+03  0.30289664594E+03  0.26322220890E+03 0.  0.
         25    1    3    3    0    0 -0.71103808192E+02  0.41175320933E+02 -0.22525119041E+03  0.27043809915E+03  0.12509000000E+03 0.  0.
         25    1    4    4    0    0  0.38429710501E+01  0.75532294418E+01 -0.51042059571E+02  0.13536845883E+03  0.12509000000E+03 0.  0.
         25    1    4    4    0    0  0.67260837142E+02 -0.48728550375E+02 -0.74294640065E+02  0.16752818711E+03  0.12509000000E+03 0.  0.
<mgrwt>
<rscale>  2 0.45365280E+03</rscale>
<asrwt>0</asrwt>
<pdfrwt beam="1">  1       21 0.16378445E-01 0.45365280E+03</pdfrwt>
<pdfrwt beam="2">  1       21 0.67935489E-01 0.45365280E+03</pdfrwt>
<totfact> 0.60997538E+04</totfact>
</mgrwt>
</event>
<event>
 7    0  0.4709932E-002  0.4672228E+03  0.7546771E-02  0.1022707E+00
         21   -1    0    0  502  501  0.00000000000E+00  0.00000000000E+00  0.39664558689E+03  0.39664558689E+03  0.00000000000E+00 0. -1.
         21   -1    0    0  501  502 -0.00000000000E+00 -0.00000000000E+00 -0.13758951959E+03  0.13758951959E+03  0.00000000000E+00 0. -1.
      99926    2    1    2    0    0  0.14210854715E-13  0.71054273576E-14  0.25905606730E+03  0.53423510647E+03  0.46722275521E+03 0.  0.
      99925    2    3    3    0    0  0.95151176083E+02  0.59955738545E+02  0.10089082106E+03  0.30334077975E+03  0.26303656398E+03 0.  0.
         25    1    3    3    0    0 -0.95151176083E+02 -0.59955738545E+02  0.15816524624E+03  0.23089432672E+03  0.12509000000E+03 0.  0.
         25    1    4    4    0    0  0.24594574753E+02 -0.60392319799E+01  0.37223465449E+02  0.13294532677E+03  0.12509000000E+03 0.  0.
         25    1    4    4    0    0  0.70556601331E+02  0.65994970525E+02  0.63667355611E+02  0.17039545298E+03  0.12509000000E+03 0.  0.
<mgrwt>
<rscale>  2 0.46722276E+03</rscale>
<asrwt>0</asrwt>
<pdfrwt beam="1">  1       21 0.58330233E-01 0.46722276E+03</pdfrwt>
<pdfrwt beam="2">  1       21 0.20233753E-01 0.46722276E+03</pdfrwt>
<totfact> 0.57176978E+04</totfact>
</mgrwt>
</event>
<event>
 7    0  0.4709932E-002  0.4583199E+03  0.7546771E-02  0.1025270E+00
         21   -1    0    0  502  501  0.00000000000E+00  0.00000000000E+00  0.14038399192E+03  0.14038399192E+03  0.00000000000E+00 0. -1.
         21   -1    0    0  501  502 -0.00000000000E+00 -0.00000000000E+00 -0.37407606506E+03  0.37407606506E+03  0.00000000000E+00 0. -1.
      99926    2    1    2    0    0  0.00000000000E+00  0.00000000000E+00 -0.23369207314E+03  0.51446005698E+03  0.45831993758E+03 0.  0.
      99925    2    3    3    0    0 -0.52321971416E+02  0.26495286888E+02 -0.25843016001E+03  0.37410668167E+03  0.26406452384E+03 0.  0.
         25    1    3    3    0    0  0.52321971416E+02 -0.26495286888E+02  0.24738086864E+02  0.14035337531E+03  0.12509000000E+03 0.  0.
         25    1    4    4    0    0  0.13807020940E+02 -0.32594915598E+01 -0.12245537629E+03  0.17562484276E+03  0.12509000000E+03 0.  0.
         25    1    4    4    0    0 -0.66128992356E+02  0.29754778447E+02 -0.13597478372E+03  0.19848183891E+03  0.12509000000E+03 0.  0.
<mgrwt>
<rscale>  2 0.45831994E+03</rscale>
<asrwt>0</asrwt>
<pdfrwt beam="1">  1       21 0.20644705E-01 0.45831994E+03</pdfrwt>
<pdfrwt beam="2">  1       21 0.55011186E-01 0.45831994E+03</pdfrwt>
<totfact> 0.62600670E+04</totfact>
</mgrwt>
</event>
<event>
 7    0  0.4709932E-002  0.4500889E+03  0.7546771E-02  0.1027696E+00
         21   -1    0    0  502  501  0.00000000000E+00  0.00000000000E+00  0.64233245428E+02  0.64233245428E+02  0.00000000000E+00 0.  1.
         21   -1    0    0  501  502 -0.00000000000E+00 -0.00000000000E+00 -0.78845458862E+03  0.78845458862E+03  0.00000000000E+00 0.  1.
      99926    2    1    2    0    0  0.00000000000E+00  0.00000000000E+00 -0.72422134319E+03  0.85268783405E+03  0.45008886722E+03 0.  0.
      99925    2    3    3    0    0 -0.82506934089E+02 -0.63157276199E+02 -0.51701643052E+03  0.58929151735E+03  0.26298719987E+03 0.  0.
         25    1    3    3    0    0  0.82506934089E+02  0.63157276199E+02 -0.20720491267E+03  0.26339631669E+03  0.12509000000E+03 0.  0.
         25    1    4    4    0    0 -0.21637695165E+02 -0.22423719738E+01 -0.18726175465E+03  0.22624696890E+03  0.12509000000E+03 0.  0.
         25    1    4    4    0    0 -0.60869238924E+02 -0.60914904226E+02 -0.32975467587E+03  0.36304454845E+03  0.12509000000E+03 0.  0.
<mgrwt>
<rscale>  2 0.45008887E+03</rscale>
<asrwt>0</asrwt>
<pdfrwt beam="1">  1       21 0.94460664E-02 0.45008887E+03</pdfrwt>
<pdfrwt beam="2">  1       21 0.11594919E+00 0.45008887E+03</pdfrwt>
<totfact> 0.47108111E+04</totfact>
</mgrwt>
</event>
<event>
 7    0  0.4709932E-002  0.4587944E+03  0.7546771E-02  0.1025131E+00
         21   -1    0    0  502  501  0.00000000000E+00  0.00000000000E+00  0.34058363644E+03  0.34058363644E+03  0.00000000000E+00 0. -1.
         21   -1    0    0  501  502 -0.00000000000E+00 -0.00000000000E+00 -0.15450854548E+03  0.15450854548E+03  0.00000000000E+00 0. -1.
      99926    2    1    2    0    0  0.00000000000E+00  0.00000000000E+00  0.18607509095E+03  0.49509218192E+03  0.45879443014E+03 0.  0.
      99925    2    3    3    0    0  0.30153081003E+02  0.94079442943E+02  0.18387125396E+03  0.33567914959E+03  0.26289104884E+03 0.  0.
         25    1    3    3    0    0 -0.30153081003E+02 -0.94079442943E+02  0.22038369943E+01  0.15941303233E+03  0.12509000000E+03 0.  0.
         25    1    4    4    0    0  0.71953587488E+01  0.97849840127E+01  0.10582545377E+03  0.16429867274E+03  0.12509000000E+03 0.  0.
         25    1    4    4    0    0  0.22957722254E+02  0.84294458930E+02  0.78045800186E+02  0.17138047685E+03  0.12509000000E+03 0.  0.
<mgrwt>
<rscale>  2 0.45879443E+03</rscale>
<asrwt>0</asrwt>
<pdfrwt beam="1">  1       21 0.50085829E-01 0.45879443E+03</pdfrwt>
<pdfrwt beam="2">  1       21 0.22721845E-01 0.45879443E+03</pdfrwt>
<totfact> 0.63676999E+04</totfact>
</mgrwt>
</event>
<event>
 7    0  0.4709932E-002  0.4522165E+03  0.7546771E-02  0.1027063E+00
         21   -1    0    0  502  501  0.00000000000E+00  0.00000000000E+00  0.58554451107E+03  0.58554451107E+03  0.00000000000E+00 0.  1.
         21   -1    0    0  501  502 -0.00000000000E+00 -0.00000000000E+00 -0.87311786957E+02  0.87311786957E+02  0.00000000000E+00 0.  1.
      99926    2    1    2    0    0  0.00000000000E+00  0.71054273576E-14  0.49823272411E+03  0.67285629802E+03  0.45221648623E+03 0.  0.
      99925    2    3    3    0    0  0.10110574975E+03 -0.44427433561E+02  0.30435657666E+03  0.41706021100E+03  0.26288804530E+03 0.  0.
         25    1    4    4    0    0  0.55854540348E+02  0.16073962072E+02  0.16588913048E+03  0.21574247065E+03  0.12509000000E+03 0.  0.
         25    1    4    4    0    0  0.45251209401E+02 -0.60501395633E+02  0.13846744618E+03  0.20131774035E+03  0.12509000000E+03 0.  0.
         25    1    3    3    0    0 -0.10110574975E+03  0.44427433561E+02  0.19387614745E+03  0.25579608702E+03  0.12509000000E+03 0.  0.
<mgrwt>
<rscale>  2 0.45221649E+03</rscale>
<asrwt>0</asrwt>
<pdfrwt beam="1">  1       21 0.86109485E-01 0.45221649E+03</pdfrwt>
<pdfrwt beam="2">  1       21 0.12839969E-01 0.45221649E+03</pdfrwt>
<totfact> 0.55611576E+04</totfact>
</mgrwt>
</event>
<event>
 7    0  0.4709932E-002  0.4525628E+03  0.7546771E-02  0.1026961E+00
         21   -1    0    0  502  501  0.00000000000E+00  0.00000000000E+00  0.46771851736E+02  0.46771851736E+02  0.00000000000E+00 0.  1.
         21   -1    0    0  501  502 -0.00000000000E+00 -0.00000000000E+00 -0.10947452207E+04  0.10947452207E+04  0.00000000000E+00 0.  1.
      99926    2    1    2    0    0  0.00000000000E+00 -0.71054273576E-14 -0.10479733689E+04  0.11415170724E+04  0.45256275211E+03 0.  0.
      99925    2    3    3    0    0 -0.66171277915E+02 -0.39422403707E+02 -0.86211813975E+03  0.90461532431E+03  0.26296089855E+03 0.  0.
         25    1    3    3    0    0  0.66171277915E+02  0.39422403707E+02 -0.18585522920E+03  0.23690174811E+03  0.12509000000E+03 0.  0.
         25    1    4    4    0    0 -0.33063735465E+02 -0.47009272904E+02 -0.54297909279E+03  0.56015791135E+03  0.12509000000E+03 0.  0.
         25    1    4    4    0    0 -0.33107542450E+02  0.75868691967E+01 -0.31913904695E+03  0.34445741296E+03  0.12509000000E+03 0.  0.
<mgrwt>
<rscale>  2 0.45256275E+03</rscale>
<asrwt>0</asrwt>
<pdfrwt beam="1">  1       21 0.68782143E-02 0.45256275E+03</pdfrwt>
<pdfrwt beam="2">  1       21 0.16099193E+00 0.45256275E+03</pdfrwt>
<totfact> 0.34721790E+04</totfact>
</mgrwt>
</event>
<event>
 7    0  0.4709932E-002  0.4517361E+03  0.7546771E-02  0.1027206E+00
         21   -1    0    0  502  501  0.00000000000E+00  0.00000000000E+00  0.16754587084E+03  0.16754587084E+03  0.00000000000E+00 0. -1.
         21   -1    0    0  501  502 -0.00000000000E+00 -0.00000000000E+00 -0.30449194255E+03  0.30449194255E+03  0.00000000000E+00 0. -1.
      99926    2    1    2    0    0  0.00000000000E+00  0.00000000000E+00 -0.13694607171E+03  0.47203781339E+03  0.45173606311E+03 0.  0.
      99925    2    3    3    0    0  0.36916592611E+02 -0.73842970472E+02 -0.10529272166E+02  0.27596554506E+03  0.26311688922E+03 0.  0.
         25    1    4    4    0    0  0.18315199445E+02  0.53330927442E+01 -0.65948479643E+01  0.12670788661E+03  0.12509000000E+03 0.  0.
         25    1    3    3    0    0 -0.36916592611E+02  0.73842970472E+02 -0.12641679954E+03  0.19607226832E+03  0.12509000000E+03 0.  0.
         25    1    4    4    0    0  0.18601393166E+02 -0.79176063217E+02 -0.39344242017E+01  0.14925765846E+03  0.12509000000E+03 0.  0.
<mgrwt>
<rscale>  2 0.45173606E+03</rscale>
<asrwt>0</asrwt>
<pdfrwt beam="1">  1       21 0.24639099E-01 0.45173606E+03</pdfrwt>
<pdfrwt beam="2">  1       21 0.44778227E-01 0.45173606E+03</pdfrwt>
<totfact> 0.69055765E+04</totfact>
</mgrwt>
</event>
<event>
 7    0  0.4709932E-002  0.4543061E+03  0.7546771E-02  0.1026446E+00
         21   -1    0    0  502  501  0.00000000000E+00  0.00000000000E+00  0.53673960107E+02  0.53673960107E+02  0.00000000000E+00 0. -1.
         21   -1    0    0  501  502 -0.00000000000E+00 -0.00000000000E+00 -0.96133206044E+03  0.96133206044E+03  0.00000000000E+00 0. -1.
      99926    2    1    2    0    0  0.31086244690E-14  0.71054273576E-14 -0.90765810034E+03  0.10150060206E+04  0.45430605834E+03 0.  0.
      99925    2    3    3    0    0  0.30908343059E+01  0.57991272280E+02 -0.35608419902E+03  0.44645187394E+03  0.26296535520E+03 0.  0.
         25    1    4    4    0    0 -0.30369686953E+02  0.42469927820E+02 -0.21642420720E+03  0.25536827959E+03  0.12509000000E+03 0.  0.
         25    1    3    3    0    0 -0.30908343059E+01 -0.57991272280E+02 -0.55157390131E+03  0.56855414661E+03  0.12509000000E+03 0.  0.
         25    1    4    4    0    0  0.33460521259E+02  0.15521344460E+02 -0.13965999182E+03  0.19108359436E+03  0.12509000000E+03 0.  0.
<mgrwt>
<rscale>  2 0.45430606E+03</rscale>
<asrwt>0</asrwt>
<pdfrwt beam="1">  1       21 0.78932306E-02 0.45430606E+03</pdfrwt>
<pdfrwt beam="2">  1       21 0.14137234E+00 0.45430606E+03</pdfrwt>
<totfact> 0.38797941E+04</totfact>
</mgrwt>
</event>
<event>
 7    0  0.4709932E-002  0.4348753E+03  0.7546771E-02  0.1032331E+00
         21   -1    0    0  502  501  0.00000000000E+00  0.00000000000E+00  0.27093049680E+03  0.27093049680E+03  0.00000000000E+00 0. -1.
         21   -1    0    0  501  502 -0.00000000000E+00 -0.00000000000E+00 -0.17450650320E+03  0.17450650320E+03  0.00000000000E+00 0. -1.
      99926    2    1    2    0    0  0.00000000000E+00  0.00000000000E+00  0.96423993607E+02  0.44543700000E+03  0.43487530906E+03 0.  0.
      99925    2    3    3    0    0 -0.25728122500E+02  0.88006353513E+02  0.46289938069E+02  0.28244010994E+03  0.26310188671E+03 0.  0.
         25    1    3    3    0    0  0.25728122500E+02 -0.88006353513E+02  0.50134055538E+02  0.16299689006E+03  0.12509000000E+03 0.  0.
         25    1    4    4    0    0  0.26384042321E-01  0.28606494971E+01  0.20066157358E+02  0.12672151665E+03  0.12509000000E+03 0.  0.
         25    1    4    4    0    0 -0.25754506542E+02  0.85145704016E+02  0.26223780711E+02  0.15571859328E+03  0.12509000000E+03 0.  0.
<mgrwt>
<rscale>  2 0.43487531E+03</rscale>
<asrwt>0</asrwt>
<pdfrwt beam="1">  1       21 0.39842720E-01 0.43487531E+03</pdfrwt>
<pdfrwt beam="2">  1       21 0.25662721E-01 0.43487531E+03</pdfrwt>
<totfact> 0.81570259E+04</totfact>
</mgrwt>
</event>
<event>
 7    0  0.4709932E-002  0.4618192E+03  0.7546771E-02  0.1024255E+00
         21   -1    0    0  502  501  0.00000000000E+00  0.00000000000E+00  0.36594394746E+03  0.36594394746E+03  0.00000000000E+00 0.  1.
         21   -1    0    0  501  502 -0.00000000000E+00 -0.00000000000E+00 -0.14570332708E+03  0.14570332708E+03  0.00000000000E+00 0.  1.
      99926    2    1    2    0    0  0.00000000000E+00  0.00000000000E+00  0.22024062038E+03  0.51164727455E+03  0.46181923161E+03 0.  0.
      99925    2    3    3    0    0 -0.43068698992E+01  0.48281415117E+02  0.25903832636E+03  0.37199622993E+03  0.26254656041E+03 0.  0.
         25    1    4    4    0    0 -0.27376753997E+00  0.45564364213E+02  0.18023996275E+03  0.22407618907E+03  0.12509000000E+03 0.  0.
         25    1    4    4    0    0 -0.40331023592E+01  0.27170509040E+01  0.78798363608E+02  0.14792004086E+03  0.12509000000E+03 0.  0.
         25    1    3    3    0    0  0.43068698992E+01 -0.48281415117E+02 -0.38797705982E+02  0.13965104462E+03  0.12509000000E+03 0.  0.
<mgrwt>
<rscale>  2 0.46181923E+03</rscale>
<asrwt>0</asrwt>
<pdfrwt beam="1">  1       21 0.53815286E-01 0.46181923E+03</pdfrwt>
<pdfrwt beam="2">  1       21 0.21426960E-01 0.46181923E+03</pdfrwt>
<totfact> 0.61086210E+04</totfact>
</mgrwt>
</event>
<event>
 7    0  0.4709932E-002  0.4524416E+03  0.7546771E-02  0.1026996E+00
         21   -1    0    0  502  501  0.00000000000E+00  0.00000000000E+00  0.93772190973E+03  0.93772190973E+03  0.00000000000E+00 0.  1.
         21   -1    0    0  501  502 -0.00000000000E+00 -0.00000000000E+00 -0.54574653349E+02  0.54574653349E+02  0.00000000000E+00 0.  1.
      99926    2    1    2    0    0  0.00000000000E+00 -0.14210854715E-13  0.88314725638E+03  0.99229656308E+03  0.45244159031E+03 0.  0.
      99925    2    3    3    0    0  0.75812072661E+02  0.81489454949E+02  0.55911567683E+03  0.62756107773E+03  0.26236342080E+03 0.  0.
         25    1    4    4    0    0  0.37141000100E+02  0.41251601769E+00  0.27516533701E+03  0.30453750975E+03  0.12509000000E+03 0.  0.
         25    1    4    4    0    0  0.38671072561E+02  0.81076938931E+02  0.28395033983E+03  0.32302356798E+03  0.12509000000E+03 0.  0.
         25    1    3    3    0    0 -0.75812072661E+02 -0.81489454949E+02  0.32403157955E+03  0.36473548535E+03  0.12509000000E+03 0.  0.
<mgrwt>
<rscale>  2 0.45244159E+03</rscale>
<asrwt>0</asrwt>
<pdfrwt beam="1">  1       21 0.13790027E+00 0.45244159E+03</pdfrwt>
<pdfrwt beam="2">  1       21 0.80256849E-02 0.45244159E+03</pdfrwt>
<totfact> 0.40266369E+04</totfact>
</mgrwt>
</event>
<event>
 7    0  0.4709932E-002  0.4514705E+03  0.7546771E-02  0.1027284E+00
         21   -1    0    0  502  501  0.00000000000E+00  0.00000000000E+00  0.28241875358E+03  0.28241875358E+03  0.00000000000E+00 0. -1.
         21   -1    0    0  501  502 -0.00000000000E+00 -0.00000000000E+00 -0.18042854227E+03  0.18042854227E+03  0.00000000000E+00 0. -1.
      99926    2    1    2    0    0  0.00000000000E+00  0.00000000000E+00  0.10199021131E+03  0.46284729586E+03  0.45147050411E+03 0.  0.
      99925    2    3    3    0    0  0.86808391799E+02 -0.35384749747E+02  0.61332113148E+01  0.27947922353E+03  0.26321710184E+03 0.  0.
         25    1    3    3    0    0 -0.86808391799E+02  0.35384749747E+02  0.95856999993E+02  0.18336807233E+03  0.12509000000E+03 0.  0.
         25    1    4    4    0    0  0.73782120154E+02 -0.47449059261E+02  0.96373182937E+01  0.15308690500E+03  0.12509000000E+03 0.  0.
         25    1    4    4    0    0  0.13026271645E+02  0.12064309514E+02 -0.35041069788E+01  0.12639231853E+03  0.12509000000E+03 0.  0.
<mgrwt>
<rscale>  2 0.45147050E+03</rscale>
<asrwt>0</asrwt>
<pdfrwt beam="1">  1       21 0.41532170E-01 0.45147050E+03</pdfrwt>
<pdfrwt beam="2">  1       21 0.26533609E-01 0.45147050E+03</pdfrwt>
<totfact> 0.69908554E+04</totfact>
</mgrwt>
</event>
<event>
 7    0  0.4709932E-002  0.4381592E+03  0.7546771E-02  0.1031313E+00
         21   -1    0    0  502  501  0.00000000000E+00  0.00000000000E+00  0.39947908735E+02  0.39947908735E+02  0.00000000000E+00 0. -1.
         21   -1    0    0  501  502 -0.00000000000E+00 -0.00000000000E+00 -0.12014616751E+04  0.12014616751E+04  0.00000000000E+00 0. -1.
      99926    2    1    2    0    0  0.00000000000E+00  0.00000000000E+00 -0.11615137664E+04  0.12414095838E+04  0.43815924660E+03 0.  0.
      99925    2    3    3    0    0  0.38294946670E+02 -0.22459441924E+02 -0.98585753236E+03  0.10212424879E+04  0.26277407707E+03 0.  0.
         25    1    4    4    0    0 -0.47923172081E+01 -0.40101990931E+02 -0.54464876708E+03  0.56028646562E+03  0.12509000000E+03 0.  0.
         25    1    4    4    0    0  0.43087263879E+02  0.17642549007E+02 -0.44120876528E+03  0.46095602231E+03  0.12509000000E+03 0.  0.
         25    1    3    3    0    0 -0.38294946670E+02  0.22459441924E+02 -0.17565623401E+03  0.22016709590E+03  0.12509000000E+03 0.  0.
<mgrwt>
<rscale>  2 0.43815925E+03</rscale>
<asrwt>0</asrwt>
<pdfrwt beam="1">  1       21 0.58746917E-02 0.43815925E+03</pdfrwt>
<pdfrwt beam="2">  1       21 0.17668556E+00 0.43815925E+03</pdfrwt>
<totfact> 0.35265215E+04</totfact>
</mgrwt>
</event>
<event>
 7    0  0.4709932E-002  0.4497619E+03  0.7546771E-02  0.1027793E+00
         21   -1    0    0  502  501  0.00000000000E+00  0.00000000000E+00  0.12325212640E+03  0.12325212640E+03  0.00000000000E+00 0.  1.
         21   -1    0    0  501  502 -0.00000000000E+00 -0.00000000000E+00 -0.41030882120E+03  0.41030882120E+03  0.00000000000E+00 0.  1.
      99926    2    1    2    0    0  0.00000000000E+00  0.35527136788E-14 -0.28705669480E+03  0.53356094761E+03  0.44976186897E+03 0.  0.
      99925    2    3    3    0    0  0.96354121360E+01  0.23264316850E+02 -0.30627639974E+03  0.40452229152E+03  0.26305699325E+03 0.  0.
         25    1    4    4    0    0  0.14783298114E+02 -0.23909638342E+02 -0.17632951307E+03  0.21801335277E+03  0.12509000000E+03 0.  0.
         25    1    3    3    0    0 -0.96354121360E+01 -0.23264316850E+02  0.19219704940E+02  0.12903865608E+03  0.12509000000E+03 0.  0.
         25    1    4    4    0    0 -0.51478859778E+01  0.47173955192E+02 -0.12994688667E+03  0.18650893875E+03  0.12509000000E+03 0.  0.
<mgrwt>
<rscale>  2 0.44976187E+03</rscale>
<asrwt>0</asrwt>
<pdfrwt beam="1">  1       21 0.18125313E-01 0.44976187E+03</pdfrwt>
<pdfrwt beam="2">  1       21 0.60339531E-01 0.44976187E+03</pdfrwt>
<totfact> 0.65645729E+04</totfact>
</mgrwt>
</event>
<event>
 7    0  0.4709932E-002  0.4570706E+03  0.7546771E-02  0.1025634E+00
         21   -1    0    0  502  501  0.00000000000E+00  0.00000000000E+00  0.13871757366E+04  0.13871757366E+04  0.00000000000E+00 0.  1.
         21   -1    0    0  501  502 -0.00000000000E+00 -0.00000000000E+00 -0.37650877477E+02  0.37650877477E+02  0.00000000000E+00 0.  1.
      99926    2    1    2    0    0 -0.14210854715E-13  0.00000000000E+00  0.13495248591E+04  0.14248266140E+04  0.45707060154E+03 0.  0.
      99925    2    3    3    0    0 -0.93636717563E+02  0.19315803404E+02  0.64885587324E+03  0.70668632763E+03  0.26315525130E+03 0.  0.
         25    1    4    4    0    0 -0.47960067234E+01 -0.12138885047E+01  0.28888160293E+03  0.31484053712E+03  0.12509000000E+03 0.  0.
         25    1    4    4    0    0 -0.88840710840E+02  0.20529691909E+02  0.35997427031E+03  0.39184579051E+03  0.12509000000E+03 0.  0.
         25    1    3    3    0    0  0.93636717563E+02 -0.19315803404E+02  0.70066898585E+03  0.71814028642E+03  0.12509000000E+03 0.  0.
<mgrwt>
<rscale>  2 0.45707060E+03</rscale>
<asrwt>0</asrwt>
<pdfrwt beam="1">  1       21 0.20399640E+00 0.45707060E+03</pdfrwt>
<pdfrwt beam="2">  1       21 0.55368947E-02 0.45707060E+03</pdfrwt>
<totfact> 0.25268878E+04</totfact>
</mgrwt>
</event>
<event>
 7    0  0.4709932E-002  0.4533153E+03  0.7546771E-02  0.1026738E+00
         21   -1    0    0  502  501  0.00000000000E+00  0.00000000000E+00  0.22712947740E+03  0.22712947740E+03  0.00000000000E+00 0.  1.
         21   -1    0    0  501  502 -0.00000000000E+00 -0.00000000000E+00 -0.22618683709E+03  0.22618683709E+03  0.00000000000E+00 0.  1.
      99926    2    1    2    0    0  0.35527136788E-14  0.35527136788E-14  0.94264031275E+00  0.45331631449E+03  0.45331533441E+03 0.  0.
      99925    2    3    3    0    0 -0.26438379392E+02 -0.19268374098E+02 -0.10610461708E+03  0.28545660651E+03  0.26297723531E+03 0.  0.
         25    1    4    4    0    0  0.30901955326E+01 -0.35375703322E+02 -0.81916831873E+02  0.15368430349E+03  0.12509000000E+03 0.  0.
         25    1    4    4    0    0 -0.29528574925E+02  0.16107329224E+02 -0.24187785212E+02  0.13177230303E+03  0.12509000000E+03 0.  0.
         25    1    3    3    0    0  0.26438379392E+02  0.19268374098E+02  0.10704725740E+03  0.16785970798E+03  0.12509000000E+03 0.  0.
<mgrwt>
<rscale>  2 0.45331533E+03</rscale>
<asrwt>0</asrwt>
<pdfrwt beam="1">  1       21 0.33401394E-01 0.45331533E+03</pdfrwt>
<pdfrwt beam="2">  1       21 0.33262770E-01 0.45331533E+03</pdfrwt>
<totfact> 0.69600174E+04</totfact>
</mgrwt>
</event>
<event>
 7    0  0.4709932E-002  0.4560195E+03  0.7546771E-02  0.1025942E+00
         21   -1    0    0  502  501  0.00000000000E+00  0.00000000000E+00  0.29389512256E+03  0.29389512256E+03  0.00000000000E+00 0. -1.
         21   -1    0    0  501  502 -0.00000000000E+00 -0.00000000000E+00 -0.17689457039E+03  0.17689457039E+03  0.00000000000E+00 0. -1.
      99926    2    1    2    0    0  0.00000000000E+00  0.00000000000E+00  0.11700055217E+03  0.47078969296E+03  0.45601952347E+03 0.  0.
      99925    2    3    3    0    0  0.42554315279E+02 -0.92223926979E+02  0.12716446247E+03  0.30933711283E+03  0.26306373069E+03 0.  0.
         25    1    4    4    0    0  0.29958631887E+02 -0.80589022995E+02  0.94925343565E+02  0.17902636455E+03  0.12509000000E+03 0.  0.
         25    1    3    3    0    0 -0.42554315279E+02  0.92223926979E+02 -0.10163910298E+02  0.16145258012E+03  0.12509000000E+03 0.  0.
         25    1    4    4    0    0  0.12595683392E+02 -0.11634903983E+02  0.32239118902E+02  0.13031074828E+03  0.12509000000E+03 0.  0.
<mgrwt>
<rscale>  2 0.45601952E+03</rscale>
<asrwt>0</asrwt>
<pdfrwt beam="1">  1       21 0.43219871E-01 0.45601952E+03</pdfrwt>
<pdfrwt beam="2">  1       21 0.26013907E-01 0.45601952E+03</pdfrwt>
<totfact> 0.66834836E+04</totfact>
</mgrwt>
</event>
<event>
 7    0  0.4709932E-002  0.4451887E+03  0.7546771E-02  0.1029167E+00
         21   -1    0    0  502  501  0.00000000000E+00  0.00000000000E+00  0.51941912991E+03  0.51941912991E+03  0.00000000000E+00 0. -1.
         21   -1    0    0  501  502 -0.00000000000E+00 -0.00000000000E+00 -0.95391626890E+02  0.95391626890E+02  0.00000000000E+00 0. -1.
      99926    2    1    2    0    0  0.17763568394E-14 -0.14210854715E-13  0.42402750302E+03  0.61481075680E+03  0.44518866041E+03 0.  0.
      99925    2    3    3    0    0  0.12873433736E+02 -0.96443366880E+02  0.21953637907E+03  0.35610015364E+03  0.26295256108E+03 0.  0.
         25    1    4    4    0    0  0.20100256054E+01 -0.29806465361E+02  0.15083755697E+03  0.19822195205E+03  0.12509000000E+03 0.  0.
         25    1    3    3    0    0 -0.12873433736E+02  0.96443366880E+02  0.20449112395E+03  0.25871060316E+03  0.12509000000E+03 0.  0.
         25    1    4    4    0    0  0.10863408131E+02 -0.66636901520E+02  0.68698822092E+02  0.15787820159E+03  0.12509000000E+03 0.  0.
<mgrwt>
<rscale>  2 0.44518866E+03</rscale>
<asrwt>0</asrwt>
<pdfrwt beam="1">  1       21 0.76385165E-01 0.44518866E+03</pdfrwt>
<pdfrwt beam="2">  1       21 0.14028181E-01 0.44518866E+03</pdfrwt>
<totfact> 0.62477840E+04</totfact>
</mgrwt>
</event>
<event>
 7    0  0.4709932E-002  0.4543254E+03  0.7546771E-02  0.1026440E+00
         21   -1    0    0  502  501  0.00000000000E+00  0.00000000000E+00  0.48068760666E+02  0.48068760666E+02  0.00000000000E+00 0.  1.
         21   -1    0    0  501  502 -0.00000000000E+00 -0.00000000000E+00 -0.10735224511E+04  0.10735224511E+04  0.00000000000E+00 0.  1.
      99926    2    1    2    0    0  0.35527136788E-14  0.00000000000E+00 -0.10254536904E+04  0.11215912118E+04  0.45432540660E+03 0.  0.
      99925    2    3    3    0    0 -0.30955274519E+02  0.47575862118E+02 -0.40542549724E+03  0.48652888402E+03  0.26290460150E+03 0.  0.
         25    1    4    4    0    0  0.11911563635E+02  0.35647415009E+02 -0.25041392618E+03  0.28243099346E+03  0.12509000000E+03 0.  0.
         25    1    4    4    0    0 -0.42866838154E+02  0.11928447108E+02 -0.15501157107E+03  0.20409789055E+03  0.12509000000E+03 0.  0.
         25    1    3    3    0    0  0.30955274519E+02 -0.47575862118E+02 -0.62002819318E+03  0.63506232774E+03  0.12509000000E+03 0.  0.
<mgrwt>
<rscale>  2 0.45432541E+03</rscale>
<asrwt>0</asrwt>
<pdfrwt beam="1">  1       21 0.70689358E-02 0.45432541E+03</pdfrwt>
<pdfrwt beam="2">  1       21 0.15787094E+00 0.45432541E+03</pdfrwt>
<totfact> 0.34928478E+04</totfact>
</mgrwt>
</event>
<event>
 7    0  0.4709932E-002  0.4555264E+03  0.7546771E-02  0.1026087E+00
         21   -1    0    0  502  501  0.00000000000E+00  0.00000000000E+00  0.54389429209E+03  0.54389429209E+03  0.00000000000E+00 0. -1.
         21   -1    0    0  501  502 -0.00000000000E+00 -0.00000000000E+00 -0.95378977841E+02  0.95378977841E+02  0.00000000000E+00 0. -1.
      99926    2    1    2    0    0  0.35527136788E-14  0.00000000000E+00  0.44851531425E+03  0.63927326993E+03  0.45552642792E+03 0.  0.
      99925    2    3    3    0    0 -0.31697655767E+02 -0.14430561054E+02  0.43391009521E+03  0.50860650677E+03  0.26303920911E+03 0.  0.
         25    1    4    4    0    0 -0.45603642839E+02  0.14621548002E+02  0.25365402808E+03  0.28684726941E+03  0.12509000000E+03 0.  0.
         25    1    4    4    0    0  0.13905987072E+02 -0.29052109057E+02  0.18025606713E+03  0.22175923736E+03  0.12509000000E+03 0.  0.
         25    1    3    3    0    0  0.31697655767E+02  0.14430561054E+02  0.14605219045E+02  0.13066676317E+03  0.12509000000E+03 0.  0.
<mgrwt>
<rscale>  2 0.45552643E+03</rscale>
<asrwt>0</asrwt>
<pdfrwt beam="1">  1       21 0.79984453E-01 0.45552643E+03</pdfrwt>
<pdfrwt beam="2">  1       21 0.14026321E-01 0.45552643E+03</pdfrwt>
<totfact> 0.56090336E+04</totfact>
</mgrwt>
</event>
<event>
 7    0  0.4709932E-002  0.4519332E+03  0.7546771E-02  0.1027147E+00
         21   -1    0    0  502  501  0.00000000000E+00  0.00000000000E+00  0.51650444333E+02  0.51650444333E+02  0.00000000000E+00 0. -1.
         21   -1    0    0  501  502 -0.00000000000E+00 -0.00000000000E+00 -0.98858598062E+03  0.98858598062E+03  0.00000000000E+00 0. -1.
      99926    2    1    2    0    0  0.00000000000E+00  0.22204460493E-15 -0.93693553629E+03  0.10402364250E+04  0.45193320374E+03 0.  0.
      99925    2    3    3    0    0 -0.10322667295E+03 -0.19428394684E+01 -0.68141924150E+03  0.73758876572E+03  0.26276507379E+03 0.  0.
         25    1    3    3    0    0  0.10322667295E+03  0.19428394684E+01 -0.25551629479E+03  0.30264765923E+03  0.12509000000E+03 0.  0.
         25    1    4    4    0    0 -0.38705625289E+02  0.35305521028E+01 -0.22977443282E+03  0.26448891906E+03  0.12509000000E+03 0.  0.
         25    1    4    4    0    0 -0.64521047666E+02 -0.54733915711E+01 -0.45164480868E+03  0.47309984667E+03  0.12509000000E+03 0.  0.
<mgrwt>
<rscale>  2 0.45193320E+03</rscale>
<asrwt>0</asrwt>
<pdfrwt beam="1">  1       21 0.75956537E-02 0.45193320E+03</pdfrwt>
<pdfrwt beam="2">  1       21 0.14538029E+00 0.45193320E+03</pdfrwt>
<totfact> 0.38552387E+04</totfact>
</mgrwt>
</event>
<event>
 7    0  0.4709932E-002  0.4676844E+03  0.7546771E-02  0.1022576E+00
         21   -1    0    0  502  501  0.00000000000E+00  0.00000000000E+00  0.15447271993E+03  0.15447271993E+03  0.00000000000E+00 0. -1.
         21   -1    0    0  501  502 -0.00000000000E+00 -0.00000000000E+00 -0.35399243436E+03  0.35399243436E+03  0.00000000000E+00 0. -1.
      99926    2    1    2    0    0  0.00000000000E+00  0.00000000000E+00 -0.19951971442E+03  0.50846515429E+03  0.46768439859E+03 0.  0.
      99925    2    3    3    0    0  0.33354496371E+02 -0.74268067238E+02 -0.21568821635E+02  0.27621034469E+03  0.26305640499E+03 0.  0.
         25    1    4    4    0    0 -0.20488710112E+02 -0.40593749634E+02 -0.27036185891E+02  0.13581643199E+03  0.12509000000E+03 0.  0.
         25    1    3    3    0    0 -0.33354496371E+02  0.74268067238E+02 -0.17795089279E+03  0.23225480960E+03  0.12509000000E+03 0.  0.
         25    1    4    4    0    0  0.53843206482E+02 -0.33674317603E+02  0.54673642555E+01  0.14039391270E+03  0.12509000000E+03 0.  0.
<mgrwt>
<rscale>  2 0.46768440E+03</rscale>
<asrwt>0</asrwt>
<pdfrwt beam="1">  1       21 0.22716577E-01 0.46768440E+03</pdfrwt>
<pdfrwt beam="2">  1       21 0.52057710E-01 0.46768440E+03</pdfrwt>
<totfact> 0.58558088E+04</totfact>
</mgrwt>
</event>
<event>
 7    0  0.4709932E-002  0.4542167E+03  0.7546771E-02  0.1026472E+00
         21   -1    0    0  502  501  0.00000000000E+00  0.00000000000E+00  0.24454285845E+02  0.24454285845E+02  0.00000000000E+00 0.  1.
         21   -1    0    0  501  502 -0.00000000000E+00 -0.00000000000E+00 -0.21091678611E+04  0.21091678611E+04  0.00000000000E+00 0.  1.
      99926    2    1    2    0    0 -0.14210854715E-13  0.14210854715E-13 -0.20847135753E+04  0.21336221470E+04  0.45421666095E+03 0.  0.
      99925    2    3    3    0    0 -0.71884936514E+02  0.82585449975E+02 -0.11897800446E+04  0.12233796885E+04  0.26285643843E+03 0.  0.
         25    1    4    4    0    0 -0.63084860950E+02  0.20672613869E+02 -0.69115145867E+03  0.70551038516E+03  0.12509000000E+03 0.  0.
         25    1    4    4    0    0 -0.88000755642E+01  0.61912836106E+02 -0.49862858591E+03  0.51786930339E+03  0.12509000000E+03 0.  0.
         25    1    3    3    0    0  0.71884936514E+02 -0.82585449975E+02 -0.89493353071E+03  0.91024245843E+03  0.12509000000E+03 0.  0.
<mgrwt>
<rscale>  2 0.45421666E+03</rscale>
<asrwt>0</asrwt>
<pdfrwt beam="1">  1       21 0.35962192E-02 0.45421666E+03</pdfrwt>
<pdfrwt beam="2">  1       21 0.31017169E+00 0.45421666E+03</pdfrwt>
<totfact> 0.11719438E+04</totfact>
</mgrwt>
</event>
<event>
 7    0  0.4709932E-002  0.4510056E+03  0.7546771E-02  0.1027423E+00
         21   -1    0    0  502  501  0.00000000000E+00  0.00000000000E+00  0.13358143491E+03  0.13358143491E+03  0.00000000000E+00 0. -1.
         21   -1    0    0  501  502 -0.00000000000E+00 -0.00000000000E+00 -0.38067791274E+03  0.38067791274E+03  0.00000000000E+00 0. -1.
      99926    2    1    2    0    0  0.00000000000E+00  0.00000000000E+00 -0.24709647783E+03  0.51425934764E+03  0.45100555128E+03 0.  0.
      99925    2    3    3    0    0 -0.53581953631E+02  0.89791219912E+02 -0.19279247225E+03  0.34241662289E+03  0.26295763413E+03 0.  0.
         25    1    3    3    0    0  0.53581953631E+02 -0.89791219912E+02 -0.54304005573E+02  0.17184272475E+03  0.12509000000E+03 0.  0.
         25    1    4    4    0    0 -0.24079530526E+02  0.42603539755E+02 -0.46726973322E+02  0.14221745155E+03  0.12509000000E+03 0.  0.
         25    1    4    4    0    0 -0.29502423105E+02  0.47187680156E+02 -0.14606549893E+03  0.20019917134E+03  0.12509000000E+03 0.  0.
<mgrwt>
<rscale>  2 0.45100555E+03</rscale>
<asrwt>0</asrwt>
<pdfrwt beam="1">  1       21 0.19644329E-01 0.45100555E+03</pdfrwt>
<pdfrwt beam="2">  1       21 0.55982046E-01 0.45100555E+03</pdfrwt>
<totfact> 0.66358466E+04</totfact>
</mgrwt>
</event>
<event>
 7    0  0.4709932E-002  0.4506835E+03  0.7546771E-02  0.1027518E+00
         21   -1    0    0  502  501  0.00000000000E+00  0.00000000000E+00  0.66820425276E+02  0.66820425276E+02  0.00000000000E+00 0. -1.
         21   -1    0    0  501  502 -0.00000000000E+00 -0.00000000000E+00 -0.75993095350E+03  0.75993095350E+03  0.00000000000E+00 0. -1.
      99926    2    1    2    0    0  0.00000000000E+00  0.14210854715E-13 -0.69311052823E+03  0.82675137878E+03  0.45068352308E+03 0.  0.
      99925    2    3    3    0    0 -0.65462368605E+02  0.77381990599E+02 -0.51169140462E+03  0.58419478604E+03  0.26302501839E+03 0.  0.
         25    1    4    4    0    0 -0.13945239019E+02  0.68142671156E+02 -0.30615389045E+03  0.33795799453E+03  0.12509000000E+03 0.  0.
         25    1    4    4    0    0 -0.51517129586E+02  0.92393194422E+01 -0.20553751416E+03  0.24623679151E+03  0.12509000000E+03 0.  0.
         25    1    3    3    0    0  0.65462368605E+02 -0.77381990599E+02 -0.18141912361E+03  0.24255659274E+03  0.12509000000E+03 0.  0.
<mgrwt>
<rscale>  2 0.45068352E+03</rscale>
<asrwt>0</asrwt>
<pdfrwt beam="1">  1       21 0.98265333E-02 0.45068352E+03</pdfrwt>
<pdfrwt beam="2">  1       21 0.11175455E+00 0.45068352E+03</pdfrwt>
<totfact> 0.48106651E+04</totfact>
</mgrwt>
</event>
<event>
 6    0  0.4709932E-002  0.4544090E+03  0.7546771E-02  0.1026415E+00
         21   -1    0    0  502  501  0.00000000000E+00  0.00000000000E+00  0.53175791860E+02  0.53175791860E+02  0.00000000000E+00 0. -1.
         21   -1    0    0  501  502 -0.00000000000E+00 -0.00000000000E+00 -0.97077800024E+03  0.97077800024E+03  0.00000000000E+00 0. -1.
      99926    2    1    2    0    0 -0.14210854715E-13 -0.71054273576E-14 -0.91760220838E+03  0.10239537921E+04  0.45440901788E+03 0.  0.
         25    1    3    3    0    0  0.88205645630E+02  0.34362342624E+02 -0.20991220042E+03  0.26205275518E+03  0.12509000000E+03 0.  0.
         25    1    3    3    0    0 -0.49895154449E+01  0.39157085930E+01 -0.27214987732E+03  0.29958853760E+03  0.12509000000E+03 0.  0.
         25    1    3    3    0    0 -0.83216130185E+02 -0.38278051217E+02 -0.43554013064E+03  0.46231249932E+03  0.12509000000E+03 0.  0.
<mgrwt>
<rscale>  2 0.45440902E+03</rscale>
<asrwt>0</asrwt>
<pdfrwt beam="1">  1       21 0.78199694E-02 0.45440902E+03</pdfrwt>
<pdfrwt beam="2">  1       21 0.14276147E+00 0.45440902E+03</pdfrwt>
<totfact> 0.38424841E+04</totfact>
</mgrwt>
</event>
<event>
 7    0  0.4709932E-002  0.4588987E+03  0.7546771E-02  0.1025101E+00
         21   -1    0    0  502  501  0.00000000000E+00  0.00000000000E+00  0.39003315206E+03  0.39003315206E+03  0.00000000000E+00 0. -1.
         21   -1    0    0  501  502 -0.00000000000E+00 -0.00000000000E+00 -0.13498084177E+03  0.13498084177E+03  0.00000000000E+00 0. -1.
      99926    2    1    2    0    0  0.00000000000E+00  0.00000000000E+00  0.25505231029E+03  0.52501399383E+03  0.45889869550E+03 0.  0.
      99925    2    3    3    0    0 -0.77265025641E+01 -0.11525745440E+03  0.17973474280E+03  0.33883068709E+03  0.26297847271E+03 0.  0.
         25    1    4    4    0    0 -0.15027614918E+02 -0.84276154788E+02  0.13268260389E+03  0.20144597527E+03  0.12509000000E+03 0.  0.
         25    1    4    4    0    0  0.73011123535E+01 -0.30981299611E+02  0.47052138909E+02  0.13738471182E+03  0.12509000000E+03 0.  0.
         25    1    3    3    0    0  0.77265025641E+01  0.11525745440E+03  0.75317567482E+02  0.18618330674E+03  0.12509000000E+03 0.  0.
<mgrwt>
<rscale>  2 0.45889870E+03</rscale>
<asrwt>0</asrwt>
<pdfrwt beam="1">  1       21 0.57357816E-01 0.45889870E+03</pdfrwt>
<pdfrwt beam="2">  1       21 0.19850124E-01 0.45889870E+03</pdfrwt>
<totfact> 0.61618614E+04</totfact>
</mgrwt>
</event>
<event>
 7    0  0.4709932E-002  0.4575053E+03  0.7546771E-02  0.1025507E+00
         21   -1    0    0  502  501  0.00000000000E+00  0.00000000000E+00  0.39293372910E+02  0.39293372910E+02  0.00000000000E+00 0.  1.
         21   -1    0    0  501  502 -0.00000000000E+00 -0.00000000000E+00 -0.13317200634E+04  0.13317200634E+04  0.00000000000E+00 0.  1.
      99926    2    1    2    0    0  0.00000000000E+00 -0.26645352591E-14 -0.12924266905E+04  0.13710134363E+04  0.45750529205E+03 0.  0.
      99925    2    3    3    0    0  0.82871388696E+02  0.27104464372E+01 -0.57034021962E+03  0.63349639033E+03  0.26297280634E+03 0.  0.
         25    1    4    4    0    0  0.47914011874E+02 -0.36732493717E+02 -0.26019139101E+03  0.29494422639E+03  0.12509000000E+03 0.  0.
         25    1    4    4    0    0  0.34957376822E+02  0.39442940154E+02 -0.31014882861E+03  0.33855216394E+03  0.12509000000E+03 0.  0.
         25    1    3    3    0    0 -0.82871388696E+02 -0.27104464372E+01 -0.72208647091E+03  0.73751704601E+03  0.12509000000E+03 0.  0.
<mgrwt>
<rscale>  2 0.45750529E+03</rscale>
<asrwt>0</asrwt>
<pdfrwt beam="1">  1       21 0.57784359E-02 0.45750529E+03</pdfrwt>
<pdfrwt beam="2">  1       21 0.19584123E+00 0.45750529E+03</pdfrwt>
<totfact> 0.26593186E+04</totfact>
</mgrwt>
</event>
<event>
 7    0  0.4709932E-002  0.4519360E+03  0.7546771E-02  0.1027146E+00
         21   -1    0    0  502  501  0.00000000000E+00  0.00000000000E+00  0.39805666423E+03  0.39805666423E+03  0.00000000000E+00 0.  1.
         21   -1    0    0  501  502 -0.00000000000E+00 -0.00000000000E+00 -0.12827705779E+03  0.12827705779E+03  0.00000000000E+00 0.  1.
      99926    2    1    2    0    0  0.33306690739E-14  0.00000000000E+00  0.26977960643E+03  0.52633372202E+03  0.45193600309E+03 0.  0.
      99925    2    3    3    0    0 -0.69119351363E+00  0.10083708471E+03  0.22207430123E+03  0.35872733895E+03  0.26305838333E+03 0.  0.
         25    1    4    4    0    0  0.39867280356E+02  0.49980176879E+02  0.10327917182E+03  0.17436029811E+03  0.12509000000E+03 0.  0.
         25    1    4    4    0    0 -0.40558473870E+02  0.50856907832E+02  0.11879512941E+03  0.18436704084E+03  0.12509000000E+03 0.  0.
         25    1    3    3    0    0  0.69119351363E+00 -0.10083708471E+03  0.47705305201E+02  0.16760638307E+03  0.12509000000E+03 0.  0.
<mgrwt>
<rscale>  2 0.45193600E+03</rscale>
<asrwt>0</asrwt>
<pdfrwt beam="1">  1       21 0.58537745E-01 0.45193600E+03</pdfrwt>
<pdfrwt beam="2">  1       21 0.18864273E-01 0.45193600E+03</pdfrwt>
<totfact> 0.65020235E+04</totfact>
</mgrwt>
</event>
<event>
 7    0  0.4709932E-002  0.4584350E+03  0.7546771E-02  0.1025236E+00
         21   -1    0    0  502  501  0.00000000000E+00  0.00000000000E+00  0.67819875045E+03  0.67819875045E+03  0.00000000000E+00 0.  1.
         21   -1    0    0  501  502 -0.00000000000E+00 -0.00000000000E+00 -0.77470884421E+02  0.77470884421E+02  0.00000000000E+00 0.  1.
      99926    2    1    2    0    0  0.71054273576E-14 -0.35527136788E-14  0.60072786603E+03  0.75566963487E+03  0.45843497690E+03 0.  0.
      99925    2    3    3    0    0  0.32545772552E+02 -0.17817370634E+02  0.55868171553E+03  0.61858545314E+03  0.26295630353E+03 0.  0.
         25    1    4    4    0    0  0.46021886524E+02 -0.34940761987E+02  0.31459990383E+03  0.34345229433E+03  0.12509000000E+03 0.  0.
         25    1    4    4    0    0 -0.13476113972E+02  0.17123391353E+02  0.24408181169E+03  0.27513315881E+03  0.12509000000E+03 0.  0.
         25    1    3    3    0    0 -0.32545772552E+02  0.17817370634E+02  0.42046150496E+02  0.13708418172E+03  0.12509000000E+03 0.  0.
<mgrwt>
<rscale>  2 0.45843498E+03</rscale>
<asrwt>0</asrwt>
<pdfrwt beam="1">  1       21 0.99735107E-01 0.45843498E+03</pdfrwt>
<pdfrwt beam="2">  1       21 0.11392777E-01 0.45843498E+03</pdfrwt>
<totfact> 0.48655796E+04</totfact>
</mgrwt>
</event>
<event>
 7    0  0.4709932E-002  0.4430406E+03  0.7546771E-02  0.1029818E+00
         21   -1    0    0  502  501  0.00000000000E+00  0.00000000000E+00  0.34619461441E+03  0.34619461441E+03  0.00000000000E+00 0.  1.
         21   -1    0    0  501  502 -0.00000000000E+00 -0.00000000000E+00 -0.14174465548E+03  0.14174465548E+03  0.00000000000E+00 0.  1.
      99926    2    1    2    0    0  0.00000000000E+00  0.71054273576E-14  0.20444995894E+03  0.48793926989E+03  0.44304056856E+03 0.  0.
      99925    2    3    3    0    0 -0.51865262617E+02  0.56120840546E+02  0.20382709128E+03  0.34135328736E+03  0.26293921245E+03 0.  0.
         25    1    4    4    0    0 -0.18385933654E+02  0.55916766751E+01  0.55861995942E+02  0.13833791995E+03  0.12509000000E+03 0.  0.
         25    1    4    4    0    0 -0.33479328963E+02  0.50529163871E+02  0.14796509534E+03  0.20301536742E+03  0.12509000000E+03 0.  0.
         25    1    3    3    0    0  0.51865262617E+02 -0.56120840546E+02  0.62286765575E+00  0.14658598253E+03  0.12509000000E+03 0.  0.
<mgrwt>
<rscale>  2 0.44304057E+03</rscale>
<asrwt>0</asrwt>
<pdfrwt beam="1">  1       21 0.50910973E-01 0.44304057E+03</pdfrwt>
<pdfrwt beam="2">  1       21 0.20844802E-01 0.44304057E+03</pdfrwt>
<totfact> 0.72796201E+04</totfact>
</mgrwt>
</event>
<event>
 7    0  0.4709932E-002  0.4379992E+03  0.7546771E-02  0.1031362E+00
         21   -1    0    0  502  501  0.00000000000E+00  0.00000000000E+00  0.14082539510E+03  0.14082539510E+03  0.00000000000E+00 0.  1.
         21   -1    0    0  501  502 -0.00000000000E+00 -0.00000000000E+00 -0.34056938452E+03  0.34056938452E+03  0.00000000000E+00 0.  1.
      99926    2    1    2    0    0  0.11102230246E-14 -0.14210854715E-13 -0.19974398942E+03  0.48139477962E+03  0.43799916956E+03 0.  0.
      99925    2    3    3    0    0 -0.89695914882E+00  0.88965397340E+02 -0.16827505583E+03  0.32469937975E+03  0.26305426501E+03 0.  0.
         25    1    4    4    0    0 -0.30902835058E+02  0.16411525130E+02 -0.74138188303E+02  0.14956036386E+03  0.12509000000E+03 0.  0.
         25    1    3    3    0    0  0.89695914882E+00 -0.88965397340E+02 -0.31468933595E+02  0.15669539987E+03  0.12509000000E+03 0.  0.
         25    1    4    4    0    0  0.30005875909E+02  0.72553872211E+02 -0.94136867523E+02  0.17513901590E+03  0.12509000000E+03 0.  0.
<mgrwt>
<rscale>  2 0.43799917E+03</rscale>
<asrwt>0</asrwt>
<pdfrwt beam="1">  1       21 0.20709617E-01 0.43799917E+03</pdfrwt>
<pdfrwt beam="2">  1       21 0.50083733E-01 0.43799917E+03</pdfrwt>
<totfact> 0.76400859E+04</totfact>
</mgrwt>
</event>
<event>
 7    0  0.4709932E-002  0.4946324E+03  0.7546771E-02  0.1015189E+00
         21   -1    0    0  502  501  0.00000000000E+00  0.00000000000E+00  0.43526087843E+03  0.43526087843E+03  0.00000000000E+00 0. -1.
         21   -1    0    0  501  502 -0.00000000000E+00 -0.00000000000E+00 -0.14052563687E+03  0.14052563687E+03  0.00000000000E+00 0. -1.
      99926    2    1    2    0    0 -0.14210854715E-13  0.14210854715E-13  0.29473524157E+03  0.57578651530E+03  0.49463243786E+03 0.  0.
      99925    2    3    3    0    0 -0.88633197622E+02  0.10910856955E+03  0.12752380344E+03  0.32405710341E+03  0.26265978405E+03 0.  0.
         25    1    4    4    0    0 -0.83158450509E+02  0.75090836999E+02  0.78228312535E+02  0.18525965204E+03  0.12509000000E+03 0.  0.
         25    1    3    3    0    0  0.88633197622E+02 -0.10910856955E+03  0.16721143813E+03  0.25172941189E+03  0.12509000000E+03 0.  0.
         25    1    4    4    0    0 -0.54747471137E+01  0.34017732548E+02  0.49295490906E+02  0.13879745137E+03  0.12509000000E+03 0.  0.
<mgrwt>
<rscale>  2 0.49463244E+03</rscale>
<asrwt>0</asrwt>
<pdfrwt beam="1">  1       21 0.64008952E-01 0.49463244E+03</pdfrwt>
<pdfrwt beam="2">  1       21 0.20665535E-01 0.49463244E+03</pdfrwt>
<totfact> 0.44506879E+04</totfact>
</mgrwt>
</event>
<event>
 7    0  0.4709932E-002  0.4552868E+03  0.7546771E-02  0.1026157E+00
         21   -1    0    0  502  501  0.00000000000E+00  0.00000000000E+00  0.76184327498E+02  0.76184327498E+02  0.00000000000E+00 0. -1.
         21   -1    0    0  501  502 -0.00000000000E+00 -0.00000000000E+00 -0.68021222312E+03  0.68021222312E+03  0.00000000000E+00 0. -1.
      99926    2    1    2    0    0  0.71054273576E-14  0.00000000000E+00 -0.60402789562E+03  0.75639655062E+03  0.45528677018E+03 0.  0.
      99925    2    3    3    0    0  0.44955468461E+02 -0.40270188405E+02 -0.53928553310E+03  0.60315894484E+03  0.26330428085E+03 0.  0.
         25    1    4    4    0    0  0.34087347195E+02  0.38249505010E+01 -0.19652069854E+03  0.23546649558E+03  0.12509000000E+03 0.  0.
         25    1    4    4    0    0  0.10868121267E+02 -0.44095138906E+02 -0.34276483456E+03  0.36769244926E+03  0.12509000000E+03 0.  0.
         25    1    3    3    0    0 -0.44955468461E+02  0.40270188405E+02 -0.64742362520E+02  0.15323760577E+03  0.12509000000E+03 0.  0.
<mgrwt>
<rscale>  2 0.45528677E+03</rscale>
<asrwt>0</asrwt>
<pdfrwt beam="1">  1       21 0.11203578E-01 0.45528677E+03</pdfrwt>
<pdfrwt beam="2">  1       21 0.10003121E+00 0.45528677E+03</pdfrwt>
<totfact> 0.49833134E+04</totfact>
</mgrwt>
</event>
<event>
 7    0  0.4709932E-002  0.4553893E+03  0.7546771E-02  0.1026127E+00
         21   -1    0    0  502  501  0.00000000000E+00  0.00000000000E+00  0.87112583126E+02  0.87112583126E+02  0.00000000000E+00 0. -1.
         21   -1    0    0  501  502 -0.00000000000E+00 -0.00000000000E+00 -0.59514780314E+03  0.59514780314E+03  0.00000000000E+00 0. -1.
      99926    2    1    2    0    0  0.00000000000E+00  0.71054273576E-14 -0.50803522001E+03  0.68226038626E+03  0.45538933880E+03 0.  0.
      99925    2    3    3    0    0  0.98799316418E+02 -0.49800429536E+02 -0.35748662349E+03  0.45741871815E+03  0.26304716313E+03 0.  0.
         25    1    3    3    0    0 -0.98799316418E+02  0.49800429536E+02 -0.15054859652E+03  0.22484166812E+03  0.12509000000E+03 0.  0.
         25    1    4    4    0    0  0.67241779112E+02 -0.63570116272E+02 -0.19826462592E+03  0.25202973343E+03  0.12509000000E+03 0.  0.
         25    1    4    4    0    0  0.31557537306E+02  0.13769686736E+02 -0.15922199757E+03  0.20538898472E+03  0.12509000000E+03 0.  0.
<mgrwt>
<rscale>  2 0.45538934E+03</rscale>
<asrwt>0</asrwt>
<pdfrwt beam="1">  1       21 0.12810675E-01 0.45538934E+03</pdfrwt>
<pdfrwt beam="2">  1       21 0.87521731E-01 0.45538934E+03</pdfrwt>
<totfact> 0.53712209E+04</totfact>
</mgrwt>
</event>
<event>
 7    0  0.4709932E-002  0.4511279E+03  0.7546771E-02  0.1027386E+00
         21   -1    0    0  502  501  0.00000000000E+00  0.00000000000E+00  0.32760181861E+03  0.32760181861E+03  0.00000000000E+00 0. -1.
         21   -1    0    0  501  502 -0.00000000000E+00 -0.00000000000E+00 -0.15530772663E+03  0.15530772663E+03  0.00000000000E+00 0. -1.
      99926    2    1    2    0    0  0.35527136788E-14  0.00000000000E+00  0.17229409199E+03  0.48290954524E+03  0.45112789179E+03 0.  0.
      99925    2    3    3    0    0 -0.57823732940E+01  0.94209849006E+02  0.49149757529E+02  0.28360834931E+03  0.26288603166E+03 0.  0.
         25    1    4    4    0    0  0.37111068865E+02  0.48620552991E+02  0.29832208024E+02  0.14240315425E+03  0.12509000000E+03 0.  0.
         25    1    4    4    0    0 -0.42893442160E+02  0.45589296015E+02  0.19317549505E+02  0.14120519505E+03  0.12509000000E+03 0.  0.
         25    1    3    3    0    0  0.57823732940E+01 -0.94209849006E+02  0.12314433446E+03  0.19930119593E+03  0.12509000000E+03 0.  0.
<mgrwt>
<rscale>  2 0.45112789E+03</rscale>
<asrwt>0</asrwt>
<pdfrwt beam="1">  1       21 0.48176738E-01 0.45112789E+03</pdfrwt>
<pdfrwt beam="2">  1       21 0.22839371E-01 0.45112789E+03</pdfrwt>
<totfact> 0.68572596E+04</totfact>
</mgrwt>
</event>
<event>
 7    0  0.4709932E-002  0.4560735E+03  0.7546771E-02  0.1025926E+00
         21   -1    0    0  502  501  0.00000000000E+00  0.00000000000E+00  0.19239300607E+03  0.19239300607E+03  0.00000000000E+00 0.  1.
         21   -1    0    0  501  502 -0.00000000000E+00 -0.00000000000E+00 -0.27028409852E+03  0.27028409852E+03  0.00000000000E+00 0.  1.
      99926    2    1    2    0    0  0.00000000000E+00  0.00000000000E+00 -0.77891092445E+02  0.46267710459E+03  0.45607354761E+03 0.  0.
      99925    2    3    3    0    0 -0.57011715342E+02 -0.98838542581E+02 -0.43256569793E+02  0.28985797531E+03  0.26292037166E+03 0.  0.
         25    1    3    3    0    0  0.57011715342E+02  0.98838542581E+02 -0.34634522652E+02  0.17281912928E+03  0.12509000000E+03 0.  0.
         25    1    4    4    0    0 -0.20457719636E+01 -0.14334166801E+02 -0.16832436563E+02  0.12704523817E+03  0.12509000000E+03 0.  0.
         25    1    4    4    0    0 -0.54965943379E+02 -0.84504375780E+02 -0.26424133230E+02  0.16281273714E+03  0.12509000000E+03 0.  0.
<mgrwt>
<rscale>  2 0.45607355E+03</rscale>
<asrwt>0</asrwt>
<pdfrwt beam="1">  1       21 0.28293089E-01 0.45607355E+03</pdfrwt>
<pdfrwt beam="2">  1       21 0.39747662E-01 0.45607355E+03</pdfrwt>
<totfact> 0.67405789E+04</totfact>
</mgrwt>
</event>
<event>
 7    0  0.4709932E-002  0.4335399E+03  0.7546771E-02  0.1032748E+00
         21   -1    0    0  502  501  0.00000000000E+00  0.00000000000E+00  0.32393363682E+02  0.32393363682E+02  0.00000000000E+00 0. -1.
         21   -1    0    0  501  502 -0.00000000000E+00 -0.00000000000E+00 -0.14505817021E+04  0.14505817021E+04  0.00000000000E+00 0. -1.
      99926    2    1    2    0    0  0.00000000000E+00  0.14210854715E-13 -0.14181883384E+04  0.14829750658E+04  0.43353994338E+03 0.  0.
      99925    2    3    3    0    0 -0.13640503327E+02  0.89823851435E+02 -0.95578511249E+03  0.99541108119E+03  0.26279964172E+03 0.  0.
         25    1    4    4    0    0 -0.10573000486E+01  0.77132444105E+01 -0.36838379615E+03  0.38912047156E+03  0.12509000000E+03 0.  0.
         25    1    4    4    0    0 -0.12583203278E+02  0.82110607024E+02 -0.58740131634E+03  0.60629060963E+03  0.12509000000E+03 0.  0.
         25    1    3    3    0    0  0.13640503327E+02 -0.89823851435E+02 -0.46240322591E+03  0.48756398457E+03  0.12509000000E+03 0.  0.
<mgrwt>
<rscale>  2 0.43353994E+03</rscale>
<asrwt>0</asrwt>
<pdfrwt beam="1">  1       21 0.47637303E-02 0.43353994E+03</pdfrwt>
<pdfrwt beam="2">  1       21 0.21332082E+00 0.43353994E+03</pdfrwt>
<totfact> 0.28692891E+04</totfact>
</mgrwt>
</event>
<event>
 7    0  0.4709932E-002  0.4538718E+03  0.7546771E-02  0.1026574E+00
         21   -1    0    0  502  501  0.00000000000E+00  0.00000000000E+00  0.88061022849E+02  0.88061022849E+02  0.00000000000E+00 0.  1.
         21   -1    0    0  501  502 -0.00000000000E+00 -0.00000000000E+00 -0.58482064808E+03  0.58482064808E+03  0.00000000000E+00 0.  1.
      99926    2    1    2    0    0 -0.53290705182E-14  0.00000000000E+00 -0.49675962523E+03  0.67288167093E+03  0.45387180769E+03 0.  0.
      99925    2    3    3    0    0 -0.11442358886E+02  0.76172669988E+02 -0.19174101031E+03  0.33433024680E+03  0.26282864315E+03 0.  0.
         25    1    4    4    0    0 -0.36792136489E+02  0.34407054049E+02 -0.65100562610E+02  0.14974344068E+03  0.12509000000E+03 0.  0.
         25    1    4    4    0    0  0.25349777603E+02  0.41765615939E+02 -0.12664044770E+03  0.18458680612E+03  0.12509000000E+03 0.  0.
         25    1    3    3    0    0  0.11442358886E+02 -0.76172669988E+02 -0.30501861492E+03  0.33855142413E+03  0.12509000000E+03 0.  0.
<mgrwt>
<rscale>  2 0.45387181E+03</rscale>
<asrwt>0</asrwt>
<pdfrwt beam="1">  1       21 0.12950151E-01 0.45387181E+03</pdfrwt>
<pdfrwt beam="2">  1       21 0.86003035E-01 0.45387181E+03</pdfrwt>
<totfact> 0.54886902E+04</totfact>
</mgrwt>
</event>
<event>
 7    0  0.4709932E-002  0.4193987E+03  0.7546771E-02  0.1037262E+00
         21   -1    0    0  502  501  0.00000000000E+00  0.00000000000E+00  0.31036282961E+02  0.31036282961E+02  0.00000000000E+00 0. -1.
         21   -1    0    0  501  502 -0.00000000000E+00 -0.00000000000E+00 -0.14168517792E+04  0.14168517792E+04  0.00000000000E+00 0. -1.
      99926    2    1    2    0    0 -0.11102230246E-15  0.00000000000E+00 -0.13858154962E+04  0.14478880621E+04  0.41939867779E+03 0.  0.
      99925    2    3    3    0    0  0.87713326746E+00 -0.71256872727E+02 -0.98430706803E+03  0.10213498607E+04  0.26309090163E+03 0.  0.
         25    1    4    4    0    0 -0.22735233827E+02 -0.88338292256E+01 -0.38693862347E+03  0.40738671288E+03  0.12509000000E+03 0.  0.
         25    1    3    3    0    0 -0.87713326746E+00  0.71256872727E+02 -0.40150842819E+03  0.42653820143E+03  0.12509000000E+03 0.  0.
         25    1    4    4    0    0  0.23612367094E+02 -0.62423043501E+02 -0.59736844455E+03  0.61396314783E+03  0.12509000000E+03 0.  0.
<mgrwt>
<rscale>  2 0.41939868E+03</rscale>
<asrwt>0</asrwt>
<pdfrwt beam="1">  1       21 0.45641598E-02 0.41939868E+03</pdfrwt>
<pdfrwt beam="2">  1       21 0.20836053E+00 0.41939868E+03</pdfrwt>
<totfact> 0.33414418E+04</totfact>
</mgrwt>
</event>
<event>
 7    0  0.4709932E-002  0.4560260E+03  0.7546771E-02  0.1025940E+00
         21   -1    0    0  502  501  0.00000000000E+00  0.00000000000E+00  0.19034077560E+04  0.19034077560E+04  0.00000000000E+00 0. -1.
         21   -1    0    0  501  502 -0.00000000000E+00 -0.00000000000E+00 -0.27314125714E+02  0.27314125714E+02  0.00000000000E+00 0. -1.
      99926    2    1    2    0    0  0.00000000000E+00  0.71054273576E-14  0.18760936302E+04  0.19307218817E+04  0.45602595861E+03 0.  0.
      99925    2    3    3    0    0  0.82116258934E+02 -0.35156855590E+02  0.14802698940E+04  0.15061008474E+04  0.26298615737E+03 0.  0.
         25    1    4    4    0    0  0.25354597663E+02  0.40065003946E+01  0.53065683394E+03  0.54580499373E+03  0.12509000000E+03 0.  0.
         25    1    4    4    0    0  0.56761661272E+02 -0.39163355985E+02  0.94961306002E+03  0.96029585363E+03  0.12509000000E+03 0.  0.
         25    1    3    3    0    0 -0.82116258934E+02  0.35156855590E+02  0.39582373628E+03  0.42462103431E+03  0.12509000000E+03 0.  0.
<mgrwt>
<rscale>  2 0.45602596E+03</rscale>
<asrwt>0</asrwt>
<pdfrwt beam="1">  1       21 0.27991282E+00 0.45602596E+03</pdfrwt>
<pdfrwt beam="2">  1       21 0.40167845E-02 0.45602596E+03</pdfrwt>
<totfact> 0.14756199E+04</totfact>
</mgrwt>
</event>
<event>
 7    0  0.4709932E-002  0.4222210E+03  0.7546771E-02  0.1036346E+00
         21   -1    0    0  502  501  0.00000000000E+00  0.00000000000E+00  0.84364602138E+03  0.84364602138E+03  0.00000000000E+00 0.  1.
         21   -1    0    0  501  502 -0.00000000000E+00 -0.00000000000E+00 -0.52827430957E+02  0.52827430957E+02  0.00000000000E+00 0.  1.
      99926    2    1    2    0    0 -0.14210854715E-13  0.17763568394E-14  0.79081859043E+03  0.89647345234E+03  0.42222104138E+03 0.  0.
      99925    2    3    3    0    0  0.68074045178E+02 -0.15295722919E+02  0.59123162564E+03  0.65081006602E+03  0.26292750352E+03 0.  0.
         25    1    3    3    0    0 -0.68074045178E+02  0.15295722919E+02  0.19958696479E+03  0.24566338632E+03  0.12509000000E+03 0.  0.
         25    1    4    4    0    0  0.66016266502E+02 -0.23435873161E+02  0.26462230276E+03  0.30096487970E+03  0.12509000000E+03 0.  0.
         25    1    4    4    0    0  0.20577786758E+01  0.81401502414E+01  0.32660932288E+03  0.34984518632E+03  0.12509000000E+03 0.  0.
<mgrwt>
<rscale>  2 0.42222104E+03</rscale>
<asrwt>0</asrwt>
<pdfrwt beam="1">  1       21 0.12406558E+00 0.42222104E+03</pdfrwt>
<pdfrwt beam="2">  1       21 0.77687404E-02 0.42222104E+03</pdfrwt>
<totfact> 0.56559457E+04</totfact>
</mgrwt>
</event>
<event>
 7    0  0.4709932E-002  0.4607593E+03  0.7546771E-02  0.1024561E+00
         21   -1    0    0  502  501  0.00000000000E+00  0.00000000000E+00  0.38162911354E+03  0.38162911354E+03  0.00000000000E+00 0. -1.
         21   -1    0    0  501  502 -0.00000000000E+00 -0.00000000000E+00 -0.13907423672E+03  0.13907423672E+03  0.00000000000E+00 0. -1.
      99926    2    1    2    0    0 -0.71054273576E-14  0.00000000000E+00  0.24255487682E+03  0.52070335026E+03  0.46075927631E+03 0.  0.
      99925    2    3    3    0    0 -0.62353149722E+02 -0.27478506004E+02  0.42148589008E+02  0.27483108288E+03  0.26289282415E+03 0.  0.
         25    1    3    3    0    0  0.62353149722E+02  0.27478506004E+02  0.20040628781E+03  0.24587226738E+03  0.12509000000E+03 0.  0.
         25    1    4    4    0    0 -0.52403517802E+02  0.12939257258E+02 -0.59841470884E+00  0.13624029968E+03  0.12509000000E+03 0.  0.
         25    1    4    4    0    0 -0.99496319206E+01 -0.40417763261E+02  0.42747003717E+02  0.13859078320E+03  0.12509000000E+03 0.  0.
<mgrwt>
<rscale>  2 0.46075928E+03</rscale>
<asrwt>0</asrwt>
<pdfrwt beam="1">  1       21 0.56121928E-01 0.46075928E+03</pdfrwt>
<pdfrwt beam="2">  1       21 0.20452094E-01 0.46075928E+03</pdfrwt>
<totfact> 0.61003666E+04</totfact>
</mgrwt>
</event>
<event>
 7    0  0.4709932E-002  0.4581410E+03  0.7546771E-02  0.1025322E+00
         21   -1    0    0  502  501  0.00000000000E+00  0.00000000000E+00  0.46244276033E+03  0.46244276033E+03  0.00000000000E+00 0.  1.
         21   -1    0    0  501  502 -0.00000000000E+00 -0.00000000000E+00 -0.11346983186E+03  0.11346983186E+03  0.00000000000E+00 0.  1.
      99926    2    1    2    0    0  0.00000000000E+00 -0.35527136788E-14  0.34897292846E+03  0.57591259219E+03  0.45814103619E+03 0.  0.
      99925    2    3    3    0    0  0.10311726860E+03 -0.29387824160E+02  0.27481139722E+03  0.39523537694E+03  0.26304540265E+03 0.  0.
         25    1    4    4    0    0  0.50395448439E+02  0.13402873857E+02  0.93121233040E+02  0.16443360482E+03  0.12509000000E+03 0.  0.
         25    1    4    4    0    0  0.52721820161E+02 -0.42790698017E+02  0.18169016418E+03  0.23080177212E+03  0.12509000000E+03 0.  0.
         25    1    3    3    0    0 -0.10311726860E+03  0.29387824160E+02  0.74161531247E+02  0.18067721525E+03  0.12509000000E+03 0.  0.
<mgrwt>
<rscale>  2 0.45814104E+03</rscale>
<asrwt>0</asrwt>
<pdfrwt beam="1">  1       21 0.68006288E-01 0.45814104E+03</pdfrwt>
<pdfrwt beam="2">  1       21 0.16686740E-01 0.45814104E+03</pdfrwt>
<totfact> 0.58714145E+04</totfact>
</mgrwt>
</event>
<event>
 7    0  0.4709932E-002  0.4621917E+03  0.7546771E-02  0.1024147E+00
         21   -1    0    0  502  501  0.00000000000E+00  0.00000000000E+00  0.38042667517E+03  0.38042667517E+03  0.00000000000E+00 0.  1.
         21   -1    0    0  501  502 -0.00000000000E+00 -0.00000000000E+00 -0.14038261957E+03  0.14038261957E+03  0.00000000000E+00 0.  1.
      99926    2    1    2    0    0  0.71054273576E-14  0.00000000000E+00  0.24004405560E+03  0.52080929474E+03  0.46219170575E+03 0.  0.
      99925    2    3    3    0    0 -0.55667721524E+02  0.10223635634E+03  0.11823420503E+03  0.31096097912E+03  0.26299474427E+03 0.  0.
         25    1    4    4    0    0  0.49451847203E+01  0.65336616182E+02  0.37815014731E+02  0.14618759080E+03  0.12509000000E+03 0.  0.
         25    1    3    3    0    0  0.55667721524E+02 -0.10223635634E+03  0.12180985056E+03  0.20984831563E+03  0.12509000000E+03 0.  0.
         25    1    4    4    0    0 -0.60612906245E+02  0.36899740157E+02  0.80419190303E+02  0.16477338831E+03  0.12509000000E+03 0.  0.
<mgrwt>
<rscale>  2 0.46219171E+03</rscale>
<asrwt>0</asrwt>
<pdfrwt beam="1">  1       21 0.55945099E-01 0.46219171E+03</pdfrwt>
<pdfrwt beam="2">  1       21 0.20644503E-01 0.46219171E+03</pdfrwt>
<totfact> 0.60316104E+04</totfact>
</mgrwt>
</event>
<event>
 7    0  0.4709932E-002  0.4567658E+03  0.7546771E-02  0.1025723E+00
         21   -1    0    0  502  501  0.00000000000E+00  0.00000000000E+00  0.64177486023E+02  0.64177486023E+02  0.00000000000E+00 0.  1.
         21   -1    0    0  501  502 -0.00000000000E+00 -0.00000000000E+00 -0.81272664841E+03  0.81272664841E+03  0.00000000000E+00 0.  1.
      99926    2    1    2    0    0  0.00000000000E+00  0.00000000000E+00 -0.74854916239E+03  0.87690413443E+03  0.45676581798E+03 0.  0.
      99925    2    3    3    0    0  0.36357467747E+02  0.62323224329E+02 -0.29886791170E+03  0.40460466897E+03  0.26301494209E+03 0.  0.
         25    1    3    3    0    0 -0.36357467747E+02 -0.62323224329E+02 -0.44968125069E+03  0.47229946546E+03  0.12509000000E+03 0.  0.
         25    1    4    4    0    0 -0.14618732549E+02  0.52840091649E+02 -0.16501117969E+03  0.21420079400E+03  0.12509000000E+03 0.  0.
         25    1    4    4    0    0  0.50976200295E+02  0.94831326802E+01 -0.13385673201E+03  0.19040387497E+03  0.12509000000E+03 0.  0.
<mgrwt>
<rscale>  2 0.45676582E+03</rscale>
<asrwt>0</asrwt>
<pdfrwt beam="1">  1       21 0.94378659E-02 0.45676582E+03</pdfrwt>
<pdfrwt beam="2">  1       21 0.11951862E+00 0.45676582E+03</pdfrwt>
<totfact> 0.43640664E+04</totfact>
</mgrwt>
</event>
<event>
 7    0  0.4709932E-002  0.4446495E+03  0.7546771E-02  0.1029330E+00
         21   -1    0    0  502  501  0.00000000000E+00  0.00000000000E+00  0.10483114297E+03  0.10483114297E+03  0.00000000000E+00 0.  1.
         21   -1    0    0  501  502 -0.00000000000E+00 -0.00000000000E+00 -0.47150385053E+03  0.47150385053E+03  0.00000000000E+00 0.  1.
      99926    2    1    2    0    0 -0.35527136788E-14  0.00000000000E+00 -0.36667270756E+03  0.57633499350E+03  0.44464946898E+03 0.  0.
      99925    2    3    3    0    0 -0.25900106269E+02  0.94507097000E+02 -0.18702782079E+03  0.33649713091E+03  0.26200860000E+03 0.  0.
         25    1    4    4    0    0 -0.32900803738E+02  0.36799686760E+02 -0.54155552973E+02  0.14497245204E+03  0.12509000000E+03 0.  0.
         25    1    4    4    0    0  0.70006974694E+01  0.57707410241E+02 -0.13287226782E+03  0.19152467887E+03  0.12509000000E+03 0.  0.
         25    1    3    3    0    0  0.25900106269E+02 -0.94507097000E+02 -0.17964488676E+03  0.23983786258E+03  0.12509000000E+03 0.  0.
<mgrwt>
<rscale>  2 0.44464947E+03</rscale>
<asrwt>0</asrwt>
<pdfrwt beam="1">  1       21 0.15416345E-01 0.44464947E+03</pdfrwt>
<pdfrwt beam="2">  1       21 0.69338802E-01 0.44464947E+03</pdfrwt>
<totfact> 0.65344543E+04</totfact>
</mgrwt>
</event>
<event>
 7    0  0.4709932E-002  0.4467898E+03  0.7546771E-02  0.1028684E+00
         21   -1    0    0  502  501  0.00000000000E+00  0.00000000000E+00  0.17433816053E+03  0.17433816053E+03  0.00000000000E+00 0. -1.
         21   -1    0    0  501  502 -0.00000000000E+00 -0.00000000000E+00 -0.28625564788E+03  0.28625564788E+03  0.00000000000E+00 0. -1.
      99926    2    1    2    0    0 -0.66613381478E-15 -0.33306690739E-14 -0.11191748735E+03  0.46059380841E+03  0.44678980781E+03 0.  0.
      99925    2    3    3    0    0  0.14258393623E+01 -0.93081276234E+00 -0.17958221481E+03  0.31836539046E+03  0.26287611252E+03 0.  0.
         25    1    3    3    0    0 -0.14258393623E+01  0.93081276234E+00  0.67664727461E+02  0.14222841795E+03  0.12509000000E+03 0.  0.
         25    1    4    4    0    0  0.25735562769E+02 -0.18367280183E+02 -0.58302817527E+02  0.14158531987E+03  0.12509000000E+03 0.  0.
         25    1    4    4    0    0 -0.24309723407E+02  0.17436467421E+02 -0.12127939729E+03  0.17678007058E+03  0.12509000000E+03 0.  0.
<mgrwt>
<rscale>  2 0.44678981E+03</rscale>
<asrwt>0</asrwt>
<pdfrwt beam="1">  1       21 0.25637965E-01 0.44678981E+03</pdfrwt>
<pdfrwt beam="2">  1       21 0.42096418E-01 0.44678981E+03</pdfrwt>
<totfact> 0.72766569E+04</totfact>
</mgrwt>
</event>
<event>
 7    0  0.4709932E-002  0.4561169E+03  0.7546771E-02  0.1025913E+00
         21   -1    0    0  502  501  0.00000000000E+00  0.00000000000E+00  0.12753951528E+03  0.12753951528E+03  0.00000000000E+00 0. -1.
         21   -1    0    0  501  502 -0.00000000000E+00 -0.00000000000E+00 -0.40780036867E+03  0.40780036867E+03  0.00000000000E+00 0. -1.
      99926    2    1    2    0    0  0.00000000000E+00  0.00000000000E+00 -0.28026085338E+03  0.53533988395E+03  0.45611692076E+03 0.  0.
      99925    2    3    3    0    0 -0.64697994513E+02  0.72825432018E+02 -0.24615105194E+03  0.37316602447E+03  0.26300792271E+03 0.  0.
         25    1    4    4    0    0 -0.47586793037E+02  0.63600329643E+02 -0.16966374087E+03  0.22526162094E+03  0.12509000000E+03 0.  0.
         25    1    3    3    0    0  0.64697994513E+02 -0.72825432018E+02 -0.34109801438E+02  0.16217385947E+03  0.12509000000E+03 0.  0.
         25    1    4    4    0    0 -0.17111201477E+02  0.92251023757E+01 -0.76487311076E+02  0.14790440354E+03  0.12509000000E+03 0.  0.
<mgrwt>
<rscale>  2 0.45611692E+03</rscale>
<asrwt>0</asrwt>
<pdfrwt beam="1">  1       21 0.18755811E-01 0.45611692E+03</pdfrwt>
<pdfrwt beam="2">  1       21 0.59970643E-01 0.45611692E+03</pdfrwt>
<totfact> 0.62293172E+04</totfact>
</mgrwt>
</event>
<event>
 7    0  0.4709932E-002  0.4579793E+03  0.7546771E-02  0.1025369E+00
         21   -1    0    0  502  501  0.00000000000E+00  0.00000000000E+00  0.66536860533E+02  0.66536860533E+02  0.00000000000E+00 0. -1.
         21   -1    0    0  501  502 -0.00000000000E+00 -0.00000000000E+00 -0.78807841581E+03  0.78807841581E+03  0.00000000000E+00 0. -1.
      99926    2    1    2    0    0  0.00000000000E+00  0.00000000000E+00 -0.72154155528E+03  0.85461527634E+03  0.45797931675E+03 0.  0.
      99925    2    3    3    0    0 -0.68791256761E+02  0.51146222975E+02 -0.30717819984E+03  0.41337535118E+03  0.26300677058E+03 0.  0.
         25    1    4    4    0    0 -0.26282185476E+02  0.65026045508E+02 -0.14876487367E+03  0.20663406206E+03  0.12509000000E+03 0.  0.
         25    1    3    3    0    0  0.68791256761E+02 -0.51146222975E+02 -0.41436335544E+03  0.44123992517E+03  0.12509000000E+03 0.  0.
         25    1    4    4    0    0 -0.42509071285E+02 -0.13879822533E+02 -0.15841332617E+03  0.20674128911E+03  0.12509000000E+03 0.  0.
<mgrwt>
<rscale>  2 0.45797932E+03</rscale>
<asrwt>0</asrwt>
<pdfrwt beam="1">  1       21 0.97848329E-02 0.45797932E+03</pdfrwt>
<pdfrwt beam="2">  1       21 0.11589388E+00 0.45797932E+03</pdfrwt>
<totfact> 0.44191754E+04</totfact>
</mgrwt>
</event>
<event>
 7    0  0.4709932E-002  0.4515153E+03  0.7546771E-02  0.1027271E+00
         21   -1    0    0  502  501  0.00000000000E+00  0.00000000000E+00  0.53744626624E+02  0.53744626624E+02  0.00000000000E+00 0. -1.
         21   -1    0    0  501  502 -0.00000000000E+00 -0.00000000000E+00 -0.94830899798E+03  0.94830899798E+03  0.00000000000E+00 0. -1.
      99926    2    1    2    0    0  0.00000000000E+00 -0.35527136788E-14 -0.89456437135E+03  0.10020536246E+04  0.45151528444E+03 0.  0.
      99925    2    3    3    0    0 -0.37988200804E+01 -0.47588878729E+01 -0.80811863632E+03  0.84987789969E+03  0.26305823682E+03 0.  0.
         25    1    4    4    0    0 -0.31593072667E+01  0.37612139518E+02 -0.42518135773E+03  0.44480484409E+03  0.12509000000E+03 0.  0.
         25    1    3    3    0    0  0.37988200804E+01  0.47588878729E+01 -0.86445735030E+02  0.15217572491E+03  0.12509000000E+03 0.  0.
         25    1    4    4    0    0 -0.63951281374E+00 -0.42371027391E+02 -0.38293727859E+03  0.40507305560E+03  0.12509000000E+03 0.  0.
<mgrwt>
<rscale>  2 0.45151528E+03</rscale>
<asrwt>0</asrwt>
<pdfrwt beam="1">  1       21 0.79036211E-02 0.45151528E+03</pdfrwt>
<pdfrwt beam="2">  1       21 0.13945721E+00 0.45151528E+03</pdfrwt>
<totfact> 0.40169090E+04</totfact>
</mgrwt>
</event>
<event>
 7    0  0.4709932E-002  0.4512401E+03  0.7546771E-02  0.1027353E+00
         21   -1    0    0  502  501  0.00000000000E+00  0.00000000000E+00  0.91894582393E+02  0.91894582393E+02  0.00000000000E+00 0. -1.
         21   -1    0    0  501  502 -0.00000000000E+00 -0.00000000000E+00 -0.55394343831E+03  0.55394343831E+03  0.00000000000E+00 0. -1.
      99926    2    1    2    0    0  0.00000000000E+00  0.00000000000E+00 -0.46204885591E+03  0.64583802070E+03  0.45124007328E+03 0.  0.
      99925    2    3    3    0    0 -0.10382366846E+03  0.36384824197E+01 -0.24157454155E+03  0.37188725125E+03  0.26296249891E+03 0.  0.
         25    1    3    3    0    0  0.10382366846E+03 -0.36384824197E+01 -0.22047431436E+03  0.27395076945E+03  0.12509000000E+03 0.  0.
         25    1    4    4    0    0 -0.70431453474E+02 -0.87392966741E+01 -0.17260652292E+03  0.22467194930E+03  0.12509000000E+03 0.  0.
         25    1    4    4    0    0 -0.33392214986E+02  0.12377779094E+02 -0.68968018629E+02  0.14721530196E+03  0.12509000000E+03 0.  0.
<mgrwt>
<rscale>  2 0.45124007E+03</rscale>
<asrwt>0</asrwt>
<pdfrwt beam="1">  1       21 0.13513910E-01 0.45124007E+03</pdfrwt>
<pdfrwt beam="2">  1       21 0.81462268E-01 0.45124007E+03</pdfrwt>
<totfact> 0.57632639E+04</totfact>
</mgrwt>
</event>
<event>
 7    0  0.4709932E-002  0.4544829E+03  0.7546771E-02  0.1026394E+00
         21   -1    0    0  502  501  0.00000000000E+00  0.00000000000E+00  0.13613697556E+03  0.13613697556E+03  0.00000000000E+00 0.  1.
         21   -1    0    0  501  502 -0.00000000000E+00 -0.00000000000E+00 -0.37931412367E+03  0.37931412367E+03  0.00000000000E+00 0.  1.
      99926    2    1    2    0    0  0.00000000000E+00  0.14210854715E-13 -0.24317714811E+03  0.51545109923E+03  0.45448290434E+03 0.  0.
      99925    2    3    3    0    0  0.84444577457E+02  0.74065189203E+02 -0.16334642774E+03  0.32934094119E+03  0.26299593375E+03 0.  0.
         25    1    4    4    0    0  0.22811835696E+02  0.21049209265E+02 -0.11439329488E+03  0.17232754589E+03  0.12509000000E+03 0.  0.
         25    1    3    3    0    0 -0.84444577457E+02 -0.74065189203E+02 -0.79830720366E+02  0.18611015805E+03  0.12509000000E+03 0.  0.
         25    1    4    4    0    0  0.61632741761E+02  0.53015979939E+02 -0.48953132864E+02  0.15701339530E+03  0.12509000000E+03 0.  0.
<mgrwt>
<rscale>  2 0.45448290E+03</rscale>
<asrwt>0</asrwt>
<pdfrwt beam="1">  1       21 0.20020144E-01 0.45448290E+03</pdfrwt>
<pdfrwt beam="2">  1       21 0.55781488E-01 0.45448290E+03</pdfrwt>
<totfact> 0.64462340E+04</totfact>
</mgrwt>
</event>
<event>
 7    0  0.4709932E-002  0.4528407E+03  0.7546771E-02  0.1026878E+00
         21   -1    0    0  502  501  0.00000000000E+00  0.00000000000E+00  0.58340869889E+02  0.58340869889E+02  0.00000000000E+00 0. -1.
         21   -1    0    0  501  502 -0.00000000000E+00 -0.00000000000E+00 -0.87873537057E+03  0.87873537057E+03  0.00000000000E+00 0. -1.
      99926    2    1    2    0    0  0.14210854715E-13  0.71054273576E-14 -0.82039450068E+03  0.93707624046E+03  0.45284074870E+03 0.  0.
      99925    2    3    3    0    0  0.90159743331E+02  0.38934449234E+02 -0.62433209978E+03  0.68462298973E+03  0.26319839779E+03 0.  0.
         25    1    4    4    0    0  0.18831096515E+02  0.45192039778E+02 -0.34654714260E+03  0.37167103842E+03  0.12509000000E+03 0.  0.
         25    1    3    3    0    0 -0.90159743331E+02 -0.38934449234E+02 -0.19606240090E+03  0.25245325072E+03  0.12509000000E+03 0.  0.
         25    1    4    4    0    0  0.71328646816E+02 -0.62575905443E+01 -0.27778495718E+03  0.31295195132E+03  0.12509000000E+03 0.  0.
<mgrwt>
<rscale>  2 0.45284075E+03</rscale>
<asrwt>0</asrwt>
<pdfrwt beam="1">  1       21 0.85795399E-02 0.45284075E+03</pdfrwt>
<pdfrwt beam="2">  1       21 0.12922579E+00 0.45284075E+03</pdfrwt>
<totfact> 0.42379768E+04</totfact>
</mgrwt>
</event>
<event>
 7    0  0.4709932E-002  0.4551756E+03  0.7546771E-02  0.1026190E+00
         21   -1    0    0  502  501  0.00000000000E+00  0.00000000000E+00  0.46417271380E+03  0.46417271380E+03  0.00000000000E+00 0. -1.
         21   -1    0    0  501  502 -0.00000000000E+00 -0.00000000000E+00 -0.11158821857E+03  0.11158821857E+03  0.00000000000E+00 0. -1.
      99926    2    1    2    0    0  0.00000000000E+00  0.00000000000E+00  0.35258449523E+03  0.57576093237E+03  0.45517559796E+03 0.  0.
      99925    2    3    3    0    0 -0.75675017500E+02  0.16599403850E+02  0.11731178828E+03  0.29826678250E+03  0.26305658971E+03 0.  0.
         25    1    3    3    0    0  0.75675017500E+02 -0.16599403850E+02  0.23527270694E+03  0.27749414987E+03  0.12509000000E+03 0.  0.
         25    1    4    4    0    0 -0.75654674846E+02  0.12966629626E+02  0.43932469626E+02  0.15319704076E+03  0.12509000000E+03 0.  0.
         25    1    4    4    0    0 -0.20342654463E-01  0.36327742235E+01  0.73379318659E+02  0.14506974174E+03  0.12509000000E+03 0.  0.
<mgrwt>
<rscale>  2 0.45517560E+03</rscale>
<asrwt>0</asrwt>
<pdfrwt beam="1">  1       21 0.68260693E-01 0.45517560E+03</pdfrwt>
<pdfrwt beam="2">  1       21 0.16410032E-01 0.45517560E+03</pdfrwt>
<totfact> 0.60112113E+04</totfact>
</mgrwt>
</event>
<event>
 7    0  0.4709932E-002  0.4384749E+03  0.7546771E-02  0.1031216E+00
         21   -1    0    0  502  501  0.00000000000E+00  0.00000000000E+00  0.91029965566E+02  0.91029965566E+02  0.00000000000E+00 0.  1.
         21   -1    0    0  501  502 -0.00000000000E+00 -0.00000000000E+00 -0.52801368126E+03  0.52801368126E+03  0.00000000000E+00 0.  1.
      99926    2    1    2    0    0  0.55511151231E-15  0.00000000000E+00 -0.43698371570E+03  0.61904364683E+03  0.43847493531E+03 0.  0.
      99925    2    3    3    0    0 -0.65785357815E+00  0.85229540017E+02 -0.21431752475E+03  0.34979980204E+03  0.26298933977E+03 0.  0.
         25    1    4    4    0    0 -0.34905993503E+02  0.47260928489E+02 -0.13452420017E+03  0.19286340315E+03  0.12509000000E+03 0.  0.
         25    1    4    4    0    0  0.34248139925E+02  0.37968611528E+02 -0.79793324576E+02  0.15693639889E+03  0.12509000000E+03 0.  0.
         25    1    3    3    0    0  0.65785357815E+00 -0.85229540017E+02 -0.22266619095E+03  0.26924384478E+03  0.12509000000E+03 0.  0.
<mgrwt>
<rscale>  2 0.43847494E+03</rscale>
<asrwt>0</asrwt>
<pdfrwt beam="1">  1       21 0.13386760E-01 0.43847494E+03</pdfrwt>
<pdfrwt beam="2">  1       21 0.77649071E-01 0.43847494E+03</pdfrwt>
<totfact> 0.65680750E+04</totfact>
</mgrwt>
</event>
<event>
 7    0  0.4709932E-002  0.4667597E+03  0.7546771E-02  0.1022839E+00
         21   -1    0    0  502  501  0.00000000000E+00  0.00000000000E+00  0.12760626712E+03  0.12760626712E+03  0.00000000000E+00 0.  1.
         21   -1    0    0  501  502 -0.00000000000E+00 -0.00000000000E+00 -0.42682983334E+03  0.42682983334E+03  0.00000000000E+00 0.  1.
      99926    2    1    2    0    0  0.00000000000E+00  0.00000000000E+00 -0.29922356622E+03  0.55443610046E+03  0.46675973146E+03 0.  0.
      99925    2    3    3    0    0 -0.46471146718E+02  0.32248202021E+02 -0.55659695936E+02  0.27484643503E+03  0.26314073627E+03 0.  0.
         25    1    4    4    0    0  0.59453017177E+01  0.25329506666E+02  0.80896049279E+00  0.12776968748E+03  0.12509000000E+03 0.  0.
         25    1    3    3    0    0  0.46471146718E+02 -0.32248202021E+02 -0.24356387028E+03  0.27958966543E+03  0.12509000000E+03 0.  0.
         25    1    4    4    0    0 -0.52416448435E+02  0.69186953555E+01 -0.56468656429E+02  0.14707674755E+03  0.12509000000E+03 0.  0.
<mgrwt>
<rscale>  2 0.46675973E+03</rscale>
<asrwt>0</asrwt>
<pdfrwt beam="1">  1       21 0.18765627E-01 0.46675973E+03</pdfrwt>
<pdfrwt beam="2">  1       21 0.62769095E-01 0.46675973E+03</pdfrwt>
<totfact> 0.56163757E+04</totfact>
</mgrwt>
</event>
<event>
 7    0  0.4709932E-002  0.4613924E+03  0.7546771E-02  0.1024378E+00
         21   -1    0    0  502  501  0.00000000000E+00  0.00000000000E+00  0.91780004065E+02  0.91780004065E+02  0.00000000000E+00 0. -1.
         21   -1    0    0  501  502 -0.00000000000E+00 -0.00000000000E+00 -0.57987290741E+03  0.57987290741E+03  0.00000000000E+00 0. -1.
      99926    2    1    2    0    0  0.14210854715E-13  0.00000000000E+00 -0.48809290334E+03  0.67165291147E+03  0.46139240479E+03 0.  0.
      99925    2    3    3    0    0 -0.98456451866E+02  0.65978495680E+02 -0.28672187138E+03  0.40661586610E+03  0.26283111732E+03 0.  0.
         25    1    4    4    0    0 -0.97754632635E+01  0.38057971696E+02 -0.11157824495E+03  0.17216614574E+03  0.12509000000E+03 0.  0.
         25    1    3    3    0    0  0.98456451866E+02 -0.65978495680E+02 -0.20137103197E+03  0.26503704537E+03  0.12509000000E+03 0.  0.
         25    1    4    4    0    0 -0.88680988602E+02  0.27920523984E+02 -0.17514362643E+03  0.23444972036E+03  0.12509000000E+03 0.  0.
<mgrwt>
<rscale>  2 0.46139240E+03</rscale>
<asrwt>0</asrwt>
<pdfrwt beam="1">  1       21 0.13497060E-01 0.46139240E+03</pdfrwt>
<pdfrwt beam="2">  1       21 0.85275425E-01 0.46139240E+03</pdfrwt>
<totfact> 0.51808872E+04</totfact>
</mgrwt>
</event>
<event>
 7    0  0.4709932E-002  0.4592008E+03  0.7546771E-02  0.1025013E+00
         21   -1    0    0  502  501  0.00000000000E+00  0.00000000000E+00  0.15433094038E+03  0.15433094038E+03  0.00000000000E+00 0.  1.
         21   -1    0    0  501  502 -0.00000000000E+00 -0.00000000000E+00 -0.34157994508E+03  0.34157994508E+03  0.00000000000E+00 0.  1.
      99926    2    1    2    0    0  0.00000000000E+00  0.00000000000E+00 -0.18724900470E+03  0.49591088546E+03  0.45920084555E+03 0.  0.
      99925    2    3    3    0    0 -0.37555105319E+02 -0.93964573935E+02 -0.18094635798E+03  0.33489238172E+03  0.26300493489E+03 0.  0.
         25    1    4    4    0    0 -0.51844242826E+02 -0.66691740373E+02 -0.77493445556E+02  0.16967131741E+03  0.12509000000E+03 0.  0.
         25    1    3    3    0    0  0.37555105319E+02  0.93964573935E+02 -0.63026467159E+01  0.16101850374E+03  0.12509000000E+03 0.  0.
         25    1    4    4    0    0  0.14289137507E+02 -0.27272833561E+02 -0.10345291243E+03  0.16522106431E+03  0.12509000000E+03 0.  0.
<mgrwt>
<rscale>  2 0.45920085E+03</rscale>
<asrwt>0</asrwt>
<pdfrwt beam="1">  1       21 0.22695727E-01 0.45920085E+03</pdfrwt>
<pdfrwt beam="2">  1       21 0.50232345E-01 0.45920085E+03</pdfrwt>
<totfact> 0.63417462E+04</totfact>
</mgrwt>
</event>
<event>
 7    0  0.4709932E-002  0.4477071E+03  0.7546771E-02  0.1028408E+00
         21   -1    0    0  502  501  0.00000000000E+00  0.00000000000E+00  0.29801444726E+02  0.29801444726E+02  0.00000000000E+00 0.  1.
         21   -1    0    0  501  502 -0.00000000000E+00 -0.00000000000E+00 -0.16814756882E+04  0.16814756882E+04  0.00000000000E+00 0.  1.
      99926    2    1    2    0    0  0.00000000000E+00  0.35527136788E-14 -0.16516742434E+04  0.17112771329E+04  0.44770706842E+03 0.  0.
      99925    2    3    3    0    0  0.98176933205E+02  0.27158747598E+02 -0.11569768795E+04  0.11909413781E+04  0.26338101384E+03 0.  0.
         25    1    4    4    0    0  0.85622796452E+02  0.33689975715E+02 -0.58348200391E+03  0.60379221154E+03  0.12509000000E+03 0.  0.
         25    1    3    3    0    0 -0.98176933205E+02 -0.27158747598E+02 -0.49469736389E+03  0.52033575480E+03  0.12509000000E+03 0.  0.
         25    1    4    4    0    0  0.12554136752E+02 -0.65312281169E+01 -0.57349487563E+03  0.58714916654E+03  0.12509000000E+03 0.  0.
<mgrwt>
<rscale>  2 0.44770707E+03</rscale>
<asrwt>0</asrwt>
<pdfrwt beam="1">  1       21 0.43825668E-02 0.44770707E+03</pdfrwt>
<pdfrwt beam="2">  1       21 0.24727576E+00 0.44770707E+03</pdfrwt>
<totfact> 0.20144851E+04</totfact>
</mgrwt>
</event>
<event>
 7    0  0.4709932E-002  0.4534135E+03  0.7546771E-02  0.1026709E+00
         21   -1    0    0  502  501  0.00000000000E+00  0.00000000000E+00  0.26214674970E+03  0.26214674970E+03  0.00000000000E+00 0. -1.
         21   -1    0    0  501  502 -0.00000000000E+00 -0.00000000000E+00 -0.19605790231E+03  0.19605790231E+03  0.00000000000E+00 0. -1.
      99926    2    1    2    0    0  0.35527136788E-14  0.00000000000E+00  0.66088847393E+02  0.45820465201E+03  0.45341346184E+03 0.  0.
      99925    2    3    3    0    0 -0.29112269716E+02 -0.10775449487E+03  0.45149501202E+02  0.28925341724E+03  0.26300286408E+03 0.  0.
         25    1    4    4    0    0 -0.21129896796E+02 -0.10950232130E+02  0.19901726248E+02  0.12887966065E+03  0.12509000000E+03 0.  0.
         25    1    4    4    0    0 -0.79823729205E+01 -0.96804262738E+02  0.25247774955E+02  0.16037375659E+03  0.12509000000E+03 0.  0.
         25    1    3    3    0    0  0.29112269716E+02  0.10775449487E+03  0.20939346191E+02  0.16895123477E+03  0.12509000000E+03 0.  0.
<mgrwt>
<rscale>  2 0.45341346E+03</rscale>
<asrwt>0</asrwt>
<pdfrwt beam="1">  1       21 0.38550993E-01 0.45341346E+03</pdfrwt>
<pdfrwt beam="2">  1       21 0.28832044E-01 0.45341346E+03</pdfrwt>
<totfact> 0.69182789E+04</totfact>
</mgrwt>
</event>
<event>
 6    0  0.4709932E-002  0.4516113E+03  0.7546771E-02  0.1027243E+00
         21   -1    0    0  502  501  0.00000000000E+00  0.00000000000E+00  0.26023054459E+03  0.26023054459E+03  0.00000000000E+00 0.  1.
         21   -1    0    0  501  502 -0.00000000000E+00 -0.00000000000E+00 -0.19593468941E+03  0.19593468941E+03  0.00000000000E+00 0.  1.
      99926    2    1    2    0    0  0.00000000000E+00 -0.14210854715E-13  0.64295855178E+02  0.45616523400E+03  0.45161129716E+03 0.  0.
         25    1    3    3    0    0  0.23853086213E+02  0.10928551282E+03  0.26794786298E+02  0.16993458067E+03  0.12509000000E+03 0.  0.
         25    1    3    3    0    0  0.13456838437E+02 -0.38094293155E+02 -0.51316818162E+01  0.13155266599E+03  0.12509000000E+03 0.  0.
         25    1    3    3    0    0 -0.37309924650E+02 -0.71191219667E+02  0.42632750696E+02  0.15467798734E+03  0.12509000000E+03 0.  0.
<mgrwt>
<rscale>  2 0.45161130E+03</rscale>
<asrwt>0</asrwt>
<pdfrwt beam="1">  1       21 0.38269198E-01 0.45161130E+03</pdfrwt>
<pdfrwt beam="2">  1       21 0.28813925E-01 0.45161130E+03</pdfrwt>
<totfact> 0.70342757E+04</totfact>
</mgrwt>
</event>
<event>
 7    0  0.4709932E-002  0.4587040E+03  0.7546771E-02  0.1025158E+00
         21   -1    0    0  502  501  0.00000000000E+00  0.00000000000E+00  0.47976376553E+03  0.47976376553E+03  0.00000000000E+00 0.  1.
         21   -1    0    0  501  502 -0.00000000000E+00 -0.00000000000E+00 -0.10964218475E+03  0.10964218475E+03  0.00000000000E+00 0.  1.
      99926    2    1    2    0    0  0.00000000000E+00  0.00000000000E+00  0.37012158078E+03  0.58940595028E+03  0.45870403276E+03 0.  0.
      99925    2    3    3    0    0 -0.21136815348E+02  0.34279193972E+02  0.91441819256E+02  0.28129599315E+03  0.26295246976E+03 0.  0.
         25    1    3    3    0    0  0.21136815348E+02 -0.34279193972E+02  0.27867976152E+03  0.30810995713E+03  0.12509000000E+03 0.  0.
         25    1    4    4    0    0  0.24839659975E+01  0.40683884588E+02  0.14372548201E+02  0.13234586051E+03  0.12509000000E+03 0.  0.
         25    1    4    4    0    0 -0.23620781346E+02 -0.64046906157E+01  0.77069271055E+02  0.14895013264E+03  0.12509000000E+03 0.  0.
<mgrwt>
<rscale>  2 0.45870403E+03</rscale>
<asrwt>0</asrwt>
<pdfrwt beam="1">  1       21 0.70553494E-01 0.45870403E+03</pdfrwt>
<pdfrwt beam="2">  1       21 0.16123851E-01 0.45870403E+03</pdfrwt>
<totfact> 0.57629372E+04</totfact>
</mgrwt>
</event>
<event>
 7    0  0.4709932E-002  0.4433455E+03  0.7546771E-02  0.1029725E+00
         21   -1    0    0  502  501  0.00000000000E+00  0.00000000000E+00  0.55234281568E+03  0.55234281568E+03  0.00000000000E+00 0. -1.
         21   -1    0    0  501  502 -0.00000000000E+00 -0.00000000000E+00 -0.88964334693E+02  0.88964334693E+02  0.00000000000E+00 0. -1.
      99926    2    1    2    0    0  0.00000000000E+00  0.00000000000E+00  0.46337848099E+03  0.64130715037E+03  0.44334551365E+03 0.  0.
      99925    2    3    3    0    0 -0.38969573988E+02 -0.90608296957E+02  0.33170247778E+03  0.43463211779E+03  0.26296397637E+03 0.  0.
         25    1    4    4    0    0 -0.24491335141E+02 -0.70428652307E+02  0.22665634417E+03  0.26940791936E+03  0.12509000000E+03 0.  0.
         25    1    4    4    0    0 -0.14478238847E+02 -0.20179644650E+02  0.10504613362E+03  0.16522419843E+03  0.12509000000E+03 0.  0.
         25    1    3    3    0    0  0.38969573988E+02  0.90608296957E+02  0.13167600320E+03  0.20667503258E+03  0.12509000000E+03 0.  0.
<mgrwt>
<rscale>  2 0.44334551E+03</rscale>
<asrwt>0</asrwt>
<pdfrwt beam="1">  1       21 0.81226883E-01 0.44334551E+03</pdfrwt>
<pdfrwt beam="2">  1       21 0.13082991E-01 0.44334551E+03</pdfrwt>
<totfact> 0.61684859E+04</totfact>
</mgrwt>
</event>
<event>
 7    0  0.4709932E-002  0.4293007E+03  0.7546771E-02  0.1034081E+00
         21   -1    0    0  502  501  0.00000000000E+00  0.00000000000E+00  0.28212166664E+03  0.28212166664E+03  0.00000000000E+00 0.  1.
         21   -1    0    0  501  502 -0.00000000000E+00 -0.00000000000E+00 -0.16331524945E+03  0.16331524945E+03  0.00000000000E+00 0.  1.
      99926    2    1    2    0    0  0.00000000000E+00  0.00000000000E+00  0.11880641719E+03  0.44543691609E+03  0.42930068885E+03 0.  0.
      99925    2    3    3    0    0 -0.55370031191E+02  0.14616703660E+02  0.14445301060E+03  0.30549141158E+03  0.26301871016E+03 0.  0.
         25    1    4    4    0    0 -0.34216337706E+02 -0.15685561299E+02  0.10950179640E+03  0.17045511466E+03  0.12509000000E+03 0.  0.
         25    1    4    4    0    0 -0.21153693485E+02  0.30302264959E+02  0.34951214199E+02  0.13503629691E+03  0.12509000000E+03 0.  0.
         25    1    3    3    0    0  0.55370031191E+02 -0.14616703660E+02 -0.25646593410E+02  0.13994550451E+03  0.12509000000E+03 0.  0.
<mgrwt>
<rscale>  2 0.42930069E+03</rscale>
<asrwt>0</asrwt>
<pdfrwt beam="1">  1       21 0.41488481E-01 0.42930069E+03</pdfrwt>
<pdfrwt beam="2">  1       21 0.24016948E-01 0.42930069E+03</pdfrwt>
<totfact> 0.85440431E+04</totfact>
</mgrwt>
</event>
<event>
 7    0  0.4709932E-002  0.4537713E+03  0.7546771E-02  0.1026603E+00
         21   -1    0    0  502  501  0.00000000000E+00  0.00000000000E+00  0.20095470395E+03  0.20095470395E+03  0.00000000000E+00 0. -1.
         21   -1    0    0  501  502 -0.00000000000E+00 -0.00000000000E+00 -0.25616269538E+03  0.25616269538E+03  0.00000000000E+00 0. -1.
      99926    2    1    2    0    0  0.00000000000E+00  0.35527136788E-14 -0.55207991429E+02  0.45711739933E+03  0.45377130193E+03 0.  0.
      99925    2    3    3    0    0 -0.10186911595E+03 -0.18707198969E+02 -0.77886964494E+02  0.29313837630E+03  0.26293811504E+03 0.  0.
         25    1    3    3    0    0  0.10186911595E+03  0.18707198969E+02  0.22678973064E+02  0.16397902304E+03  0.12509000000E+03 0.  0.
         25    1    4    4    0    0 -0.19045363369E+02  0.14523672898E+02 -0.19935711914E+02  0.12891316321E+03  0.12509000000E+03 0.  0.
         25    1    4    4    0    0 -0.82823752579E+02 -0.33230871867E+02 -0.57951252579E+02  0.16422521308E+03  0.12509000000E+03 0.  0.
<mgrwt>
<rscale>  2 0.45377130E+03</rscale>
<asrwt>0</asrwt>
<pdfrwt beam="1">  1       21 0.29552162E-01 0.45377130E+03</pdfrwt>
<pdfrwt beam="2">  1       21 0.37670984E-01 0.45377130E+03</pdfrwt>
<totfact> 0.69065389E+04</totfact>
</mgrwt>
</event>
<event>
 7    0  0.4709932E-002  0.4519822E+03  0.7546771E-02  0.1027133E+00
         21   -1    0    0  502  501  0.00000000000E+00  0.00000000000E+00  0.24085926042E+04  0.24085926042E+04  0.00000000000E+00 0. -1.
         21   -1    0    0  501  502 -0.00000000000E+00 -0.00000000000E+00 -0.21204070982E+02  0.21204070982E+02  0.00000000000E+00 0. -1.
      99926    2    1    2    0    0 -0.14210854715E-13 -0.35527136788E-14  0.23873885332E+04  0.24297966752E+04  0.45198216135E+03 0.  0.
      99925    2    3    3    0    0  0.10616439679E+03  0.16028535388E+02  0.16438894744E+04  0.16682415875E+04  0.26292507859E+03 0.  0.
         25    1    3    3    0    0 -0.10616439679E+03 -0.16028535388E+02  0.74349905874E+03  0.76155508766E+03  0.12509000000E+03 0.  0.
         25    1    4    4    0    0  0.82536553018E+02 -0.21122676965E+02  0.86165812376E+03  0.87484894720E+03  0.12509000000E+03 0.  0.
         25    1    4    4    0    0  0.23627843769E+02  0.37151212353E+02  0.78223135069E+03  0.79339264030E+03  0.12509000000E+03 0.  0.
<mgrwt>
<rscale>  2 0.45198216E+03</rscale>
<asrwt>0</asrwt>
<pdfrwt beam="1">  1       21 0.35420461E+00 0.45198216E+03</pdfrwt>
<pdfrwt beam="2">  1       21 0.31182474E-02 0.45198216E+03</pdfrwt>
<totfact> 0.80645379E+03</totfact>
</mgrwt>
</event>
<event>
 7    0  0.4709932E-002  0.4672644E+03  0.7546771E-02  0.1022695E+00
         21   -1    0    0  502  501  0.00000000000E+00  0.00000000000E+00  0.32396567713E+02  0.32396567713E+02  0.00000000000E+00 0.  1.
         21   -1    0    0  501  502 -0.00000000000E+00 -0.00000000000E+00 -0.16848698199E+04  0.16848698199E+04  0.00000000000E+00 0.  1.
      99926    2    1    2    0    0  0.14210854715E-13 -0.17763568394E-14 -0.16524732522E+04  0.17172663876E+04  0.46726437574E+03 0.  0.
      99925    2    3    3    0    0 -0.11133393768E+03  0.15872270454E+02 -0.83300877494E+03  0.88071590365E+03  0.26288725562E+03 0.  0.
         25    1    4    4    0    0 -0.59602012389E+02 -0.24133508788E+02 -0.34121683926E+03  0.36906810431E+03  0.12509000000E+03 0.  0.
         25    1    3    3    0    0  0.11133393768E+03 -0.15872270454E+02 -0.81946447724E+03  0.83655048395E+03  0.12509000000E+03 0.  0.
         25    1    4    4    0    0 -0.51731925288E+02  0.40005779241E+02 -0.49179193568E+03  0.51164779934E+03  0.12509000000E+03 0.  0.
<mgrwt>
<rscale>  2 0.46726438E+03</rscale>
<asrwt>0</asrwt>
<pdfrwt beam="1">  1       21 0.47642005E-02 0.46726438E+03</pdfrwt>
<pdfrwt beam="2">  1       21 0.24777501E+00 0.46726438E+03</pdfrwt>
<totfact> 0.17207076E+04</totfact>
</mgrwt>
</event>
<event>
 7    0  0.4709932E-002  0.4540987E+03  0.7546771E-02  0.1026507E+00
         21   -1    0    0  502  501  0.00000000000E+00  0.00000000000E+00  0.19969839557E+03  0.19969839557E+03  0.00000000000E+00 0.  1.
         21   -1    0    0  501  502 -0.00000000000E+00 -0.00000000000E+00 -0.25814630515E+03  0.25814630515E+03  0.00000000000E+00 0.  1.
      99926    2    1    2    0    0  0.00000000000E+00 -0.71054273576E-14 -0.58447909577E+02  0.45784470072E+03  0.45409868074E+03 0.  0.
      99925    2    3    3    0    0  0.20100737008E+02  0.61661136070E+02  0.55708356735E+02  0.27650166510E+03  0.26295173410E+03 0.  0.
         25    1    4    4    0    0  0.16668715584E+02 -0.48142538685E+01  0.63275488515E+01  0.12644591371E+03  0.12509000000E+03 0.  0.
         25    1    3    3    0    0 -0.20100737008E+02 -0.61661136070E+02 -0.11415626631E+03  0.18134303562E+03  0.12509000000E+03 0.  0.
         25    1    4    4    0    0  0.34320214249E+01  0.66475389939E+02  0.49380807883E+02  0.15005575139E+03  0.12509000000E+03 0.  0.
<mgrwt>
<rscale>  2 0.45409868E+03</rscale>
<asrwt>0</asrwt>
<pdfrwt beam="1">  1       21 0.29367411E-01 0.45409868E+03</pdfrwt>
<pdfrwt beam="2">  1       21 0.37962692E-01 0.45409868E+03</pdfrwt>
<totfact> 0.68831332E+04</totfact>
</mgrwt>
</event>
<event>
 7    0  0.4709932E-002  0.4622632E+03  0.7546771E-02  0.1024127E+00
         21   -1    0    0  502  501  0.00000000000E+00  0.00000000000E+00  0.63766256369E+03  0.63766256369E+03  0.00000000000E+00 0. -1.
         21   -1    0    0  501  502 -0.00000000000E+00 -0.00000000000E+00 -0.83777577765E+02  0.83777577765E+02  0.00000000000E+00 0. -1.
      99926    2    1    2    0    0  0.71054273576E-14  0.00000000000E+00  0.55388498593E+03  0.72144014146E+03  0.46226323677E+03 0.  0.
      99925    2    3    3    0    0 -0.34869498300E+02 -0.11444116421E+03  0.33602429229E+03  0.44318944171E+03  0.26304352160E+03 0.  0.
         25    1    4    4    0    0 -0.54372510756E+02 -0.61921878897E+02  0.14862411250E+03  0.21101498508E+03  0.12509000000E+03 0.  0.
         25    1    4    4    0    0  0.19503012456E+02 -0.52519285317E+02  0.18740017980E+03  0.23217445663E+03  0.12509000000E+03 0.  0.
         25    1    3    3    0    0  0.34869498300E+02  0.11444116421E+03  0.21786069364E+03  0.27825069975E+03  0.12509000000E+03 0.  0.
<mgrwt>
<rscale>  2 0.46226324E+03</rscale>
<asrwt>0</asrwt>
<pdfrwt beam="1">  1       21 0.93773904E-01 0.46226324E+03</pdfrwt>
<pdfrwt beam="2">  1       21 0.12320232E-01 0.46226324E+03</pdfrwt>
<totfact> 0.48900298E+04</totfact>
</mgrwt>
</event>
<event>
 7    0  0.4709932E-002  0.4520256E+03  0.7546771E-02  0.1027120E+00
         21   -1    0    0  502  501  0.00000000000E+00  0.00000000000E+00  0.32889980961E+03  0.32889980961E+03  0.00000000000E+00 0.  1.
         21   -1    0    0  501  502 -0.00000000000E+00 -0.00000000000E+00 -0.15531105922E+03  0.15531105922E+03  0.00000000000E+00 0.  1.
      99926    2    1    2    0    0  0.00000000000E+00  0.00000000000E+00  0.17358875039E+03  0.48421086883E+03  0.45202556480E+03 0.  0.
      99925    2    3    3    0    0  0.96270445584E+02  0.34678708445E+02  0.65246688696E+02  0.28964437134E+03  0.26299452457E+03 0.  0.
         25    1    4    4    0    0  0.87242076014E+02  0.20093036439E+02  0.53391455597E+02  0.16282833160E+03  0.12509000000E+03 0.  0.
         25    1    4    4    0    0  0.90283695706E+01  0.14585672005E+02  0.11855233099E+02  0.12681603975E+03  0.12509000000E+03 0.  0.
         25    1    3    3    0    0 -0.96270445584E+02 -0.34678708445E+02  0.10834206170E+03  0.19456649749E+03  0.12509000000E+03 0.  0.
<mgrwt>
<rscale>  2 0.45202556E+03</rscale>
<asrwt>0</asrwt>
<pdfrwt beam="1">  1       21 0.48367619E-01 0.45202556E+03</pdfrwt>
<pdfrwt beam="2">  1       21 0.22839862E-01 0.45202556E+03</pdfrwt>
<totfact> 0.67986027E+04</totfact>
</mgrwt>
</event>
<event>
 7    0  0.4709932E-002  0.4546178E+03  0.7546771E-02  0.1026354E+00
         21   -1    0    0  502  501  0.00000000000E+00  0.00000000000E+00  0.22658138931E+03  0.22658138931E+03  0.00000000000E+00 0. -1.
         21   -1    0    0  501  502 -0.00000000000E+00 -0.00000000000E+00 -0.22803877214E+03  0.22803877214E+03  0.00000000000E+00 0. -1.
      99926    2    1    2    0    0  0.00000000000E+00 -0.35527136788E-14 -0.14573828294E+01  0.45462016145E+03  0.45461782546E+03 0.  0.
      99925    2    3    3    0    0 -0.63527070255E+02  0.31109211105E+02 -0.88767904195E+02  0.28647109986E+03  0.26302562341E+03 0.  0.
         25    1    4    4    0    0 -0.31752598000E+02  0.16604962285E+02 -0.17377703441E+01  0.13013254857E+03  0.12509000000E+03 0.  0.
         25    1    4    4    0    0 -0.31774472255E+02  0.14504248820E+02 -0.87030133851E+02  0.15633855129E+03  0.12509000000E+03 0.  0.
         25    1    3    3    0    0  0.63527070255E+02 -0.31109211105E+02  0.87310521365E+02  0.16814906158E+03  0.12509000000E+03 0.  0.
<mgrwt>
<rscale>  2 0.45461783E+03</rscale>
<asrwt>0</asrwt>
<pdfrwt beam="1">  1       21 0.33320792E-01 0.45461783E+03</pdfrwt>
<pdfrwt beam="2">  1       21 0.33535114E-01 0.45461783E+03</pdfrwt>
<totfact> 0.68783130E+04</totfact>
</mgrwt>
</event>
<event>
 7    0  0.4709932E-002  0.4509070E+03  0.7546771E-02  0.1027452E+00
         21   -1    0    0  502  501  0.00000000000E+00  0.00000000000E+00  0.17133075126E+03  0.17133075126E+03  0.00000000000E+00 0. -1.
         21   -1    0    0  501  502 -0.00000000000E+00 -0.00000000000E+00 -0.29667345077E+03  0.29667345077E+03  0.00000000000E+00 0. -1.
      99926    2    1    2    0    0  0.00000000000E+00  0.14210854715E-13 -0.12534269951E+03  0.46800420203E+03  0.45090702012E+03 0.  0.
      99925    2    3    3    0    0 -0.72236410392E+02  0.67234261394E+02 -0.30691362526E+02  0.28268035417E+03  0.26311153151E+03 0.  0.
         25    1    4    4    0    0 -0.60165495486E+02  0.40611902946E+02  0.17067475304E+02  0.14562973708E+03  0.12509000000E+03 0.  0.
         25    1    3    3    0    0  0.72236410392E+02 -0.67234261394E+02 -0.94651336980E+02  0.18532384785E+03  0.12509000000E+03 0.  0.
         25    1    4    4    0    0 -0.12070914906E+02  0.26622358448E+02 -0.47758837829E+02  0.13705061710E+03  0.12509000000E+03 0.  0.
<mgrwt>
<rscale>  2 0.45090702E+03</rscale>
<asrwt>0</asrwt>
<pdfrwt beam="1">  1       21 0.25195699E-01 0.45090702E+03</pdfrwt>
<pdfrwt beam="2">  1       21 0.43628448E-01 0.45090702E+03</pdfrwt>
<totfact> 0.69824317E+04</totfact>
</mgrwt>
</event>
<event>
 7    0  0.4709932E-002  0.4429650E+03  0.7546771E-02  0.1029841E+00
         21   -1    0    0  502  501  0.00000000000E+00  0.00000000000E+00  0.99657849261E+02  0.99657849261E+02  0.00000000000E+00 0. -1.
         21   -1    0    0  501  502 -0.00000000000E+00 -0.00000000000E+00 -0.49222913367E+03  0.49222913367E+03  0.00000000000E+00 0. -1.
      99926    2    1    2    0    0  0.00000000000E+00  0.00000000000E+00 -0.39257128441E+03  0.59188698293E+03  0.44296499548E+03 0.  0.
      99925    2    3    3    0    0  0.80006717088E+02  0.54797071489E+02 -0.29150807039E+03  0.40409700676E+03  0.26251407952E+03 0.  0.
         25    1    4    4    0    0  0.42029107645E+02  0.36604751327E+02 -0.92353094743E+02  0.16517553063E+03  0.12509000000E+03 0.  0.
         25    1    3    3    0    0 -0.80006717088E+02 -0.54797071489E+02 -0.10106321401E+03  0.18778997617E+03  0.12509000000E+03 0.  0.
         25    1    4    4    0    0  0.37977609443E+02  0.18192320162E+02 -0.19915497565E+03  0.23892147613E+03  0.12509000000E+03 0.  0.
<mgrwt>
<rscale>  2 0.44296500E+03</rscale>
<asrwt>0</asrwt>
<pdfrwt beam="1">  1       21 0.14655566E-01 0.44296500E+03</pdfrwt>
<pdfrwt beam="2">  1       21 0.72386638E-01 0.44296500E+03</pdfrwt>
<totfact> 0.65160127E+04</totfact>
</mgrwt>
</event>
<event>
 7    0  0.4709932E-002  0.4580510E+03  0.7546771E-02  0.1025348E+00
         21   -1    0    0  502  501  0.00000000000E+00  0.00000000000E+00  0.65967739660E+03  0.65967739660E+03  0.00000000000E+00 0. -1.
         21   -1    0    0  501  502 -0.00000000000E+00 -0.00000000000E+00 -0.79512626065E+02  0.79512626065E+02  0.00000000000E+00 0. -1.
      99926    2    1    2    0    0  0.27755575616E-14  0.00000000000E+00  0.58016477054E+03  0.73919002267E+03  0.45805101096E+03 0.  0.
      99925    2    3    3    0    0  0.65879772554E+00 -0.11309711247E+02  0.17775589281E+03  0.31763485835E+03  0.26299506123E+03 0.  0.
         25    1    4    4    0    0  0.28088938954E+02 -0.35222426117E+02  0.91021602146E+02  0.16112742768E+03  0.12509000000E+03 0.  0.
         25    1    3    3    0    0 -0.65879772554E+00  0.11309711247E+02  0.40240887773E+03  0.42155516431E+03  0.12509000000E+03 0.  0.
         25    1    4    4    0    0 -0.27430141228E+02  0.23912714870E+02  0.86734290659E+02  0.15650743067E+03  0.12509000000E+03 0.  0.
<mgrwt>
<rscale>  2 0.45805101E+03</rscale>
<asrwt>0</asrwt>
<pdfrwt beam="1">  1       21 0.97011379E-01 0.45805101E+03</pdfrwt>
<pdfrwt beam="2">  1       21 0.11693034E-01 0.45805101E+03</pdfrwt>
<totfact> 0.49625240E+04</totfact>
</mgrwt>
</event>
<event>
 7    0  0.4709932E-002  0.4476236E+03  0.7546771E-02  0.1028433E+00
         21   -1    0    0  502  501  0.00000000000E+00  0.00000000000E+00  0.15429240969E+03  0.15429240969E+03  0.00000000000E+00 0. -1.
         21   -1    0    0  501  502 -0.00000000000E+00 -0.00000000000E+00 -0.32465445756E+03  0.32465445756E+03  0.00000000000E+00 0. -1.
      99926    2    1    2    0    0 -0.71054273576E-14  0.00000000000E+00 -0.17036204786E+03  0.47894686725E+03  0.44762358550E+03 0.  0.
      99925    2    3    3    0    0  0.46492174049E+02  0.25814168672E+00 -0.21003420930E+03  0.33972410554E+03  0.26293822453E+03 0.  0.
         25    1    3    3    0    0 -0.46492174049E+02 -0.25814168672E+00  0.39672161438E+02  0.13922276171E+03  0.12509000000E+03 0.  0.
         25    1    4    4    0    0  0.60168987102E+02 -0.44010599866E+00 -0.87517075706E+02  0.16409523863E+03  0.12509000000E+03 0.  0.
         25    1    4    4    0    0 -0.13676813053E+02  0.69824768538E+00 -0.12251713360E+03  0.17562886690E+03  0.12509000000E+03 0.  0.
<mgrwt>
<rscale>  2 0.44762359E+03</rscale>
<asrwt>0</asrwt>
<pdfrwt beam="1">  1       21 0.22690060E-01 0.44762359E+03</pdfrwt>
<pdfrwt beam="2">  1       21 0.47743302E-01 0.44762359E+03</pdfrwt>
<totfact> 0.70834537E+04</totfact>
</mgrwt>
</event>
<event>
 7    0  0.4709932E-002  0.4559694E+03  0.7546771E-02  0.1025957E+00
         21   -1    0    0  502  501  0.00000000000E+00  0.00000000000E+00  0.13122593495E+03  0.13122593495E+03  0.00000000000E+00 0.  1.
         21   -1    0    0  501  502 -0.00000000000E+00 -0.00000000000E+00 -0.39608803102E+03  0.39608803102E+03  0.00000000000E+00 0.  1.
      99926    2    1    2    0    0  0.00000000000E+00  0.00000000000E+00 -0.26486209608E+03  0.52731396597E+03  0.45596939455E+03 0.  0.
      99925    2    3    3    0    0 -0.10453877383E+03  0.40682965927E+02 -0.14242880869E+03  0.31941765308E+03  0.26297949085E+03 0.  0.
         25    1    3    3    0    0  0.10453877383E+03 -0.40682965927E+02 -0.12243328739E+03  0.20789631288E+03  0.12509000000E+03 0.  0.
         25    1    4    4    0    0 -0.77249806563E+02  0.53270701374E+02 -0.65624491947E+02  0.16958591416E+03  0.12509000000E+03 0.  0.
         25    1    4    4    0    0 -0.27288967266E+02 -0.12587735447E+02 -0.76804316741E+02  0.14983173892E+03  0.12509000000E+03 0.  0.
<mgrwt>
<rscale>  2 0.45596939E+03</rscale>
<asrwt>0</asrwt>
<pdfrwt beam="1">  1       21 0.19297931E-01 0.45596939E+03</pdfrwt>
<pdfrwt beam="2">  1       21 0.58248241E-01 0.45596939E+03</pdfrwt>
<totfact> 0.62903972E+04</totfact>
</mgrwt>
</event>
<event>
 7    0  0.4709932E-002  0.4671505E+03  0.7546771E-02  0.1022728E+00
         21   -1    0    0  502  501  0.00000000000E+00  0.00000000000E+00  0.17043423583E+03  0.17043423583E+03  0.00000000000E+00 0. -1.
         21   -1    0    0  501  502 -0.00000000000E+00 -0.00000000000E+00 -0.32010818392E+03  0.32010818392E+03  0.00000000000E+00 0. -1.
      99926    2    1    2    0    0  0.14210854715E-13  0.00000000000E+00 -0.14967394809E+03  0.49054241975E+03  0.46715048415E+03 0.  0.
      99925    2    3    3    0    0  0.12303773098E+03  0.11751971965E+02 -0.10684216242E+03  0.30954943079E+03  0.26292434338E+03 0.  0.
         25    1    4    4    0    0  0.82837553378E+02 -0.29103273139E+02 -0.60309568956E+02  0.16429793962E+03  0.12509000000E+03 0.  0.
         25    1    3    3    0    0 -0.12303773098E+03 -0.11751971965E+02 -0.42831785666E+02  0.18099298896E+03  0.12509000000E+03 0.  0.
         25    1    4    4    0    0  0.40200177604E+02  0.40855245103E+02 -0.46532593464E+02  0.14525149117E+03  0.12509000000E+03 0.  0.
<mgrwt>
<rscale>  2 0.46715048E+03</rscale>
<asrwt>0</asrwt>
<pdfrwt beam="1">  1       21 0.25063858E-01 0.46715048E+03</pdfrwt>
<pdfrwt beam="2">  1       21 0.47074733E-01 0.46715048E+03</pdfrwt>
<totfact> 0.59946419E+04</totfact>
</mgrwt>
</event>
<event>
 7    0  0.4709932E-002  0.4292400E+03  0.7546771E-02  0.1034100E+00
         21   -1    0    0  502  501  0.00000000000E+00  0.00000000000E+00  0.58007468136E+02  0.58007468136E+02  0.00000000000E+00 0.  1.
         21   -1    0    0  501  502 -0.00000000000E+00 -0.00000000000E+00 -0.79406585828E+03  0.79406585828E+03  0.00000000000E+00 0.  1.
      99926    2    1    2    0    0  0.00000000000E+00 -0.13322676296E-14 -0.73605839015E+03  0.85207332642E+03  0.42924002596E+03 0.  0.
      99925    2    3    3    0    0  0.84954562100E+02 -0.41170211607E+00 -0.43887537972E+03  0.51863263169E+03  0.26296532205E+03 0.  0.
         25    1    4    4    0    0  0.39530734462E+02  0.87265599069E+01 -0.14402984923E+03  0.19501522347E+03  0.12509000000E+03 0.  0.
         25    1    4    4    0    0  0.45423827638E+02 -0.91382620229E+01 -0.29484553049E+03  0.32361740822E+03  0.12509000000E+03 0.  0.
         25    1    3    3    0    0 -0.84954562100E+02  0.41170211607E+00 -0.29718301042E+03  0.33344069473E+03  0.12509000000E+03 0.  0.
<mgrwt>
<rscale>  2 0.42924003E+03</rscale>
<asrwt>0</asrwt>
<pdfrwt beam="1">  1       21 0.85305102E-02 0.42924003E+03</pdfrwt>
<pdfrwt beam="2">  1       21 0.11677439E+00 0.42924003E+03</pdfrwt>
<totfact> 0.55792303E+04</totfact>
</mgrwt>
</event>
<event>
 7    0  0.4709932E-002  0.4404812E+03  0.7546771E-02  0.1030599E+00
         21   -1    0    0  502  501  0.00000000000E+00  0.00000000000E+00  0.81913603687E+02  0.81913603687E+02  0.00000000000E+00 0. -1.
         21   -1    0    0  501  502 -0.00000000000E+00 -0.00000000000E+00 -0.59215956800E+03  0.59215956800E+03  0.00000000000E+00 0. -1.
      99926    2    1    2    0    0  0.14210854715E-13  0.11102230246E-14 -0.51024596431E+03  0.67407317168E+03  0.44048121037E+03 0.  0.
      99925    2    3    3    0    0  0.72090739904E+02  0.57901945461E+00 -0.42908378515E+03  0.50844643028E+03  0.26307312242E+03 0.  0.
         25    1    3    3    0    0 -0.72090739904E+02 -0.57901945461E+00 -0.81162179160E+02  0.16562674141E+03  0.12509000000E+03 0.  0.
         25    1    4    4    0    0  0.81394042908E+01  0.23722725997E+02 -0.16667482685E+03  0.20989765038E+03  0.12509000000E+03 0.  0.
         25    1    4    4    0    0  0.63951335614E+02 -0.23143706543E+02 -0.26240895830E+03  0.29854877990E+03  0.12509000000E+03 0.  0.
<mgrwt>
<rscale>  2 0.44048121E+03</rscale>
<asrwt>0</asrwt>
<pdfrwt beam="1">  1       21 0.12046118E-01 0.44048121E+03</pdfrwt>
<pdfrwt beam="2">  1       21 0.87082287E-01 0.44048121E+03</pdfrwt>
<totfact> 0.61017088E+04</totfact>
</mgrwt>
</event>
<event>
 7    0  0.4709932E-002  0.4478084E+03  0.7546771E-02  0.1028378E+00
         21   -1    0    0  502  501  0.00000000000E+00  0.00000000000E+00  0.19908394931E+03  0.19908394931E+03  0.00000000000E+00 0. -1.
         21   -1    0    0  501  502 -0.00000000000E+00 -0.00000000000E+00 -0.25181882490E+03  0.25181882490E+03  0.00000000000E+00 0. -1.
      99926    2    1    2    0    0  0.00000000000E+00  0.00000000000E+00 -0.52734875585E+02  0.45090277421E+03  0.44780837943E+03 0.  0.
      99925    2    3    3    0    0  0.21552767386E+02  0.70180651546E+02 -0.11114317835E+03  0.29454138650E+03  0.26270130688E+03 0.  0.
         25    1    4    4    0    0  0.48126088648E+02  0.22957672618E+02 -0.46909986085E+02  0.14384446474E+03  0.12509000000E+03 0.  0.
         25    1    4    4    0    0 -0.26573321261E+02  0.47222978928E+02 -0.64233192262E+02  0.15069692177E+03  0.12509000000E+03 0.  0.
         25    1    3    3    0    0 -0.21552767386E+02 -0.70180651546E+02  0.58408302761E+02  0.15636138770E+03  0.12509000000E+03 0.  0.
<mgrwt>
<rscale>  2 0.44780838E+03</rscale>
<asrwt>0</asrwt>
<pdfrwt beam="1">  1       21 0.29277051E-01 0.44780838E+03</pdfrwt>
<pdfrwt beam="2">  1       21 0.37032180E-01 0.44780838E+03</pdfrwt>
<totfact> 0.72943215E+04</totfact>
</mgrwt>
</event>
<event>
 7    0  0.4709932E-002  0.4540143E+03  0.7546771E-02  0.1026532E+00
         21   -1    0    0  502  501  0.00000000000E+00  0.00000000000E+00  0.65168666067E+02  0.65168666067E+02  0.00000000000E+00 0.  1.
         21   -1    0    0  501  502 -0.00000000000E+00 -0.00000000000E+00 -0.79075194568E+03  0.79075194568E+03  0.00000000000E+00 0.  1.
      99926    2    1    2    0    0  0.35527136788E-14  0.71054273576E-14 -0.72558327961E+03  0.85592061175E+03  0.45401431471E+03 0.  0.
      99925    2    3    3    0    0 -0.27662989319E+02 -0.32191311555E+02 -0.65284822409E+03  0.70512466379E+03  0.26303700552E+03 0.  0.
         25    1    4    4    0    0 -0.37254996050E+02 -0.11418338032E+02 -0.24392352547E+03  0.27688356317E+03  0.12509000000E+03 0.  0.
         25    1    4    4    0    0  0.95920067308E+01 -0.20772973523E+02 -0.40892469862E+03  0.42824110063E+03  0.12509000000E+03 0.  0.
         25    1    3    3    0    0  0.27662989319E+02  0.32191311555E+02 -0.72735055518E+02  0.15079594795E+03  0.12509000000E+03 0.  0.
<mgrwt>
<rscale>  2 0.45401431E+03</rscale>
<asrwt>0</asrwt>
<pdfrwt beam="1">  1       21 0.95836281E-02 0.45401431E+03</pdfrwt>
<pdfrwt beam="2">  1       21 0.11628704E+00 0.45401431E+03</pdfrwt>
<totfact> 0.45526648E+04</totfact>
</mgrwt>
</event>
<event>
 7    0  0.4709932E-002  0.4608905E+03  0.7546771E-02  0.1024523E+00
         21   -1    0    0  502  501  0.00000000000E+00  0.00000000000E+00  0.32459623104E+04  0.32459623104E+04  0.00000000000E+00 0.  1.
         21   -1    0    0  501  502 -0.00000000000E+00 -0.00000000000E+00 -0.16360326568E+02  0.16360326568E+02  0.00000000000E+00 0.  1.
      99926    2    1    2    0    0  0.00000000000E+00  0.00000000000E+00  0.32296019839E+04  0.32623226370E+04  0.46089045739E+03 0.  0.
      99925    2    3    3    0    0 -0.92787372461E+02 -0.73416831022E+02  0.20899483797E+04  0.21097353851E+04  0.26286809989E+03 0.  0.
         25    1    4    4    0    0 -0.59014769976E+02 -0.20874148382E+02  0.78983513984E+03  0.80212563191E+03  0.12509000000E+03 0.  0.
         25    1    4    4    0    0 -0.33772602485E+02 -0.52542682640E+02  0.13001132398E+04  0.13076097532E+04  0.12509000000E+03 0.  0.
         25    1    3    3    0    0  0.92787372461E+02  0.73416831022E+02  0.11396536042E+04  0.11525872519E+04  0.12509000000E+03 0.  0.
<mgrwt>
<rscale>  2 0.46089046E+03</rscale>
<asrwt>0</asrwt>
<pdfrwt beam="1">  1       21 0.47734695E+00 0.46089046E+03</pdfrwt>
<pdfrwt beam="2">  1       21 0.24059326E-02 0.46089046E+03</pdfrwt>
<totfact> 0.19421259E+03</totfact>
</mgrwt>
</event>
<event>
 7    0  0.4709932E-002  0.4399948E+03  0.7546771E-02  0.1030748E+00
         21   -1    0    0  502  501  0.00000000000E+00  0.00000000000E+00  0.83526370144E+02  0.83526370144E+02  0.00000000000E+00 0. -1.
         21   -1    0    0  501  502 -0.00000000000E+00 -0.00000000000E+00 -0.57944399892E+03  0.57944399892E+03  0.00000000000E+00 0. -1.
      99926    2    1    2    0    0  0.00000000000E+00  0.00000000000E+00 -0.49591762878E+03  0.66297036907E+03  0.43999479057E+03 0.  0.
      99925    2    3    3    0    0 -0.47027983595E+01 -0.97730836218E+02 -0.29738548304E+03  0.40873434949E+03  0.26277787248E+03 0.  0.
         25    1    4    4    0    0 -0.15345444753E+02 -0.41482436406E+02 -0.91697853004E+02  0.16128322774E+03  0.12509000000E+03 0.  0.
         25    1    4    4    0    0  0.10642646393E+02 -0.56248399812E+02 -0.20568763003E+03  0.24745112174E+03  0.12509000000E+03 0.  0.
         25    1    3    3    0    0  0.47027983595E+01  0.97730836218E+02 -0.19853214574E+03  0.25423601958E+03  0.12509000000E+03 0.  0.
<mgrwt>
<rscale>  2 0.43999479E+03</rscale>
<asrwt>0</asrwt>
<pdfrwt beam="1">  1       21 0.12283290E-01 0.43999479E+03</pdfrwt>
<pdfrwt beam="2">  1       21 0.85212352E-01 0.43999479E+03</pdfrwt>
<totfact> 0.61968164E+04</totfact>
</mgrwt>
</event>
<event>
 7    0  0.4709932E-002  0.4408805E+03  0.7546771E-02  0.1030477E+00
         21   -1    0    0  502  501  0.00000000000E+00  0.00000000000E+00  0.31930490050E+02  0.31930490050E+02  0.00000000000E+00 0.  1.
         21   -1    0    0  501  502 -0.00000000000E+00 -0.00000000000E+00 -0.15218656120E+04  0.15218656120E+04  0.00000000000E+00 0.  1.
      99926    2    1    2    0    0  0.00000000000E+00  0.00000000000E+00 -0.14899351219E+04  0.15537961020E+04  0.44088054972E+03 0.  0.
      99925    2    3    3    0    0  0.27987346146E+02  0.94130682674E+02 -0.97990366015E+03  0.10195457140E+04  0.26385299481E+03 0.  0.
         25    1    4    4    0    0  0.97572656496E+00  0.88582062693E+02 -0.51661520361E+03  0.53887522728E+03  0.12509000000E+03 0.  0.
         25    1    4    4    0    0  0.27011619581E+02  0.55486199810E+01 -0.46328845655E+03  0.48067048676E+03  0.12509000000E+03 0.  0.
         25    1    3    3    0    0 -0.27987346146E+02 -0.94130682674E+02 -0.51003146176E+03  0.53425038797E+03  0.12509000000E+03 0.  0.
<mgrwt>
<rscale>  2 0.44088055E+03</rscale>
<asrwt>0</asrwt>
<pdfrwt beam="1">  1       21 0.46956605E-02 0.44088055E+03</pdfrwt>
<pdfrwt beam="2">  1       21 0.22380376E+00 0.44088055E+03</pdfrwt>
<totfact> 0.25136479E+04</totfact>
</mgrwt>
</event>
<event>
 7    0  0.4709932E-002  0.4572500E+03  0.7546771E-02  0.1025582E+00
         21   -1    0    0  502  501  0.00000000000E+00  0.00000000000E+00  0.50004099219E+02  0.50004099219E+02  0.00000000000E+00 0. -1.
         21   -1    0    0  501  502 -0.00000000000E+00 -0.00000000000E+00 -0.10453021346E+04  0.10453021346E+04  0.00000000000E+00 0. -1.
      99926    2    1    2    0    0  0.14210854715E-13  0.00000000000E+00 -0.99529803538E+03  0.10953062338E+04  0.45725000449E+03 0.  0.
      99925    2    3    3    0    0  0.82638980116E+02  0.79831211220E+02 -0.60338598764E+03  0.66817067620E+03  0.26301174714E+03 0.  0.
         25    1    4    4    0    0  0.12061072358E+02  0.23717512829E+02 -0.33588527992E+03  0.35940842957E+03  0.12509000000E+03 0.  0.
         25    1    3    3    0    0 -0.82638980116E+02 -0.79831211220E+02 -0.39191204774E+03  0.42713555762E+03  0.12509000000E+03 0.  0.
         25    1    4    4    0    0  0.70577907758E+02  0.56113698390E+02 -0.26750070772E+03  0.30876224663E+03  0.12509000000E+03 0.  0.
<mgrwt>
<rscale>  2 0.45725000E+03</rscale>
<asrwt>0</asrwt>
<pdfrwt beam="1">  1       21 0.73535443E-02 0.45725000E+03</pdfrwt>
<pdfrwt beam="2">  1       21 0.15372090E+00 0.45725000E+03</pdfrwt>
<totfact> 0.35038355E+04</totfact>
</mgrwt>
</event>
<event>
 7    0  0.4709932E-002  0.4575776E+03  0.7546771E-02  0.1025486E+00
         21   -1    0    0  502  501  0.00000000000E+00  0.00000000000E+00  0.42483451898E+02  0.42483451898E+02  0.00000000000E+00 0. -1.
         21   -1    0    0  501  502 -0.00000000000E+00 -0.00000000000E+00 -0.12321109304E+04  0.12321109304E+04  0.00000000000E+00 0. -1.
      99926    2    1    2    0    0  0.00000000000E+00  0.00000000000E+00 -0.11896274785E+04  0.12745943823E+04  0.45757764562E+03 0.  0.
      99925    2    3    3    0    0 -0.96640805535E+02  0.33650197483E+02 -0.59779838332E+03  0.66109542787E+03  0.26308264207E+03 0.  0.
         25    1    4    4    0    0 -0.76640139944E+01  0.28571268568E+02 -0.26155124599E+03  0.29143029506E+03  0.12509000000E+03 0.  0.
         25    1    4    4    0    0 -0.88976791540E+02  0.50789289147E+01 -0.33624713733E+03  0.36966513281E+03  0.12509000000E+03 0.  0.
         25    1    3    3    0    0  0.96640805535E+02 -0.33650197483E+02 -0.59182909513E+03  0.61349895439E+03  0.12509000000E+03 0.  0.
<mgrwt>
<rscale>  2 0.45757765E+03</rscale>
<asrwt>0</asrwt>
<pdfrwt beam="1">  1       21 0.62475669E-02 0.45757765E+03</pdfrwt>
<pdfrwt beam="2">  1       21 0.18119277E+00 0.45757765E+03</pdfrwt>
<totfact> 0.29269984E+04</totfact>
</mgrwt>
</event>
<event>
 7    0  0.4709932E-002  0.3991350E+03  0.7546771E-02  0.1044080E+00
         21   -1    0    0  502  501  0.00000000000E+00  0.00000000000E+00  0.44834885565E+02  0.44834885565E+02  0.00000000000E+00 0.  1.
         21   -1    0    0  501  502 -0.00000000000E+00 -0.00000000000E+00 -0.88830795402E+03  0.88830795402E+03  0.00000000000E+00 0.  1.
      99926    2    1    2    0    0  0.00000000000E+00  0.35527136788E-14 -0.84347306845E+03  0.93314283958E+03  0.39913499203E+03 0.  0.
      99925    2    3    3    0    0 -0.37646356857E+01 -0.34515422873E+01 -0.46295864750E+03  0.53256223811E+03  0.26318385691E+03 0.  0.
         25    1    3    3    0    0  0.37646356857E+01  0.34515422873E+01 -0.38051442095E+03  0.40058060148E+03  0.12509000000E+03 0.  0.
         25    1    4    4    0    0 -0.21879063361E+02 -0.34504296168E+02 -0.26100004634E+03  0.29229740361E+03  0.12509000000E+03 0.  0.
         25    1    4    4    0    0  0.18114427676E+02  0.31052753881E+02 -0.20195860116E+03  0.24026483450E+03  0.12509000000E+03 0.  0.
<mgrwt>
<rscale>  2 0.39913499E+03</rscale>
<asrwt>0</asrwt>
<pdfrwt beam="1">  1       21 0.65933653E-02 0.39913499E+03</pdfrwt>
<pdfrwt beam="2">  1       21 0.13063353E+00 0.39913499E+03</pdfrwt>
<totfact> 0.66459792E+04</totfact>
</mgrwt>
</event>
<event>
 7    0  0.4709932E-002  0.4455944E+03  0.7546771E-02  0.1029044E+00
         21   -1    0    0  502  501  0.00000000000E+00  0.00000000000E+00  0.54322962189E+02  0.54322962189E+02  0.00000000000E+00 0. -1.
         21   -1    0    0  501  502 -0.00000000000E+00 -0.00000000000E+00 -0.91376832461E+03  0.91376832461E+03  0.00000000000E+00 0. -1.
      99926    2    1    2    0    0  0.00000000000E+00  0.00000000000E+00 -0.85944536242E+03  0.96809128680E+03  0.44559444407E+03 0.  0.
      99925    2    3    3    0    0  0.86758884059E+02  0.35401704912E+02 -0.64410581634E+03  0.70201044781E+03  0.26299426136E+03 0.  0.
         25    1    4    4    0    0  0.48261070852E+01  0.19318524966E+02 -0.25179613477E+03  0.28186042344E+03  0.12509000000E+03 0.  0.
         25    1    4    4    0    0  0.81932776974E+02  0.16083179946E+02 -0.39230968157E+03  0.42015002436E+03  0.12509000000E+03 0.  0.
         25    1    3    3    0    0 -0.86758884059E+02 -0.35401704912E+02 -0.21533954608E+03  0.26608083899E+03  0.12509000000E+03 0.  0.
<mgrwt>
<rscale>  2 0.44559444E+03</rscale>
<asrwt>0</asrwt>
<pdfrwt beam="1">  1       21 0.79886715E-02 0.44559444E+03</pdfrwt>
<pdfrwt beam="2">  1       21 0.13437769E+00 0.44559444E+03</pdfrwt>
<totfact> 0.43530680E+04</totfact>
</mgrwt>
</event>
<event>
 7    0  0.4709932E-002  0.4549004E+03  0.7546771E-02  0.1026271E+00
         21   -1    0    0  502  501  0.00000000000E+00  0.00000000000E+00  0.81909717163E+02  0.81909717163E+02  0.00000000000E+00 0.  1.
         21   -1    0    0  501  502 -0.00000000000E+00 -0.00000000000E+00 -0.63159298788E+03  0.63159298788E+03  0.00000000000E+00 0.  1.
      99926    2    1    2    0    0  0.00000000000E+00 -0.35527136788E-14 -0.54968327072E+03  0.71350270505E+03  0.45490044185E+03 0.  0.
      99925    2    3    3    0    0  0.25181405519E+02  0.27146991498E+02 -0.17796501351E+03  0.31955723525E+03  0.26281974476E+03 0.  0.
         25    1    4    4    0    0  0.30325483645E+02 -0.30365756852E+01 -0.12762376125E+03  0.18128482641E+03  0.12509000000E+03 0.  0.
         25    1    4    4    0    0 -0.51440781261E+01  0.30183567183E+02 -0.50341252264E+02  0.13827240884E+03  0.12509000000E+03 0.  0.
         25    1    3    3    0    0 -0.25181405519E+02 -0.27146991498E+02 -0.37171825721E+03  0.39394546980E+03  0.12509000000E+03 0.  0.
<mgrwt>
<rscale>  2 0.45490044E+03</rscale>
<asrwt>0</asrwt>
<pdfrwt beam="1">  1       21 0.12045547E-01 0.45490044E+03</pdfrwt>
<pdfrwt beam="2">  1       21 0.92881317E-01 0.45490044E+03</pdfrwt>
<totfact> 0.52216882E+04</totfact>
</mgrwt>
</event>
<event>
 7    0  0.4709932E-002  0.4466079E+03  0.7546771E-02  0.1028738E+00
         21   -1    0    0  502  501  0.00000000000E+00  0.00000000000E+00  0.24247681624E+03  0.24247681624E+03  0.00000000000E+00 0. -1.
         21   -1    0    0  501  502 -0.00000000000E+00 -0.00000000000E+00 -0.20564711491E+03  0.20564711491E+03  0.00000000000E+00 0. -1.
      99926    2    1    2    0    0  0.00000000000E+00  0.00000000000E+00  0.36829701332E+02  0.44812393116E+03  0.44660791616E+03 0.  0.
      99925    2    3    3    0    0 -0.73999462785E+01 -0.92599040351E+02  0.72499767415E+02  0.28828275000E+03  0.26309957467E+03 0.  0.
         25    1    3    3    0    0  0.73999462785E+01  0.92599040351E+02 -0.35670066084E+02  0.15984118116E+03  0.12509000000E+03 0.  0.
         25    1    4    4    0    0  0.22293830292E+02 -0.25732857159E+02  0.86610108513E+01  0.12992965795E+03  0.12509000000E+03 0.  0.
         25    1    4    4    0    0 -0.29693776570E+02 -0.66866183192E+02  0.63838756564E+02  0.15835309205E+03  0.12509000000E+03 0.  0.
<mgrwt>
<rscale>  2 0.44660792E+03</rscale>
<asrwt>0</asrwt>
<pdfrwt beam="1">  1       21 0.35658355E-01 0.44660792E+03</pdfrwt>
<pdfrwt beam="2">  1       21 0.30242223E-01 0.44660792E+03</pdfrwt>
<totfact> 0.73876590E+04</totfact>
</mgrwt>
</event>
<event>
 7    0  0.4709932E-002  0.4480663E+03  0.7546771E-02  0.1028300E+00
         21   -1    0    0  502  501  0.00000000000E+00  0.00000000000E+00  0.99917155039E+02  0.99917155039E+02  0.00000000000E+00 0. -1.
         21   -1    0    0  501  502 -0.00000000000E+00 -0.00000000000E+00 -0.50232468225E+03  0.50232468225E+03  0.00000000000E+00 0. -1.
      99926    2    1    2    0    0  0.00000000000E+00 -0.17763568394E-14 -0.40240752721E+03  0.60224183729E+03  0.44806630383E+03 0.  0.
      99925    2    3    3    0    0  0.10489542342E+03 -0.10165380999E+02 -0.23191265532E+03  0.36597420458E+03  0.26276844159E+03 0.  0.
         25    1    3    3    0    0 -0.10489542342E+03  0.10165380999E+02 -0.17049487189E+03  0.23626763271E+03  0.12509000000E+03 0.  0.
         25    1    4    4    0    0  0.42792753241E+02  0.30912765698E+02 -0.91564075779E+02  0.16376295945E+03  0.12509000000E+03 0.  0.
         25    1    4    4    0    0  0.62102670178E+02 -0.41078146697E+02 -0.14034857954E+03  0.20221124513E+03  0.12509000000E+03 0.  0.
<mgrwt>
<rscale>  2 0.44806630E+03</rscale>
<asrwt>0</asrwt>
<pdfrwt beam="1">  1       21 0.14693700E-01 0.44806630E+03</pdfrwt>
<pdfrwt beam="2">  1       21 0.73871276E-01 0.44806630E+03</pdfrwt>
<totfact> 0.61860146E+04</totfact>
</mgrwt>
</event>
<event>
 7    0  0.4709932E-002  0.4449834E+03  0.7546771E-02  0.1029229E+00
         21   -1    0    0  502  501  0.00000000000E+00  0.00000000000E+00  0.36136091123E+03  0.36136091123E+03  0.00000000000E+00 0.  1.
         21   -1    0    0  501  502 -0.00000000000E+00 -0.00000000000E+00 -0.13698922545E+03  0.13698922545E+03  0.00000000000E+00 0.  1.
      99926    2    1    2    0    0  0.17763568394E-14  0.00000000000E+00  0.22437168578E+03  0.49835013668E+03  0.44498337649E+03 0.  0.
      99925    2    3    3    0    0 -0.37642774891E+01  0.31136541800E+02  0.31859884074E+02  0.26663488920E+03  0.26286014895E+03 0.  0.
         25    1    4    4    0    0  0.18004788219E+02  0.24130548102E+02  0.50293234723E+02  0.13814258326E+03  0.12509000000E+03 0.  0.
         25    1    3    3    0    0  0.37642774891E+01 -0.31136541800E+02  0.19251180171E+03  0.23171524749E+03  0.12509000000E+03 0.  0.
         25    1    4    4    0    0 -0.21769065708E+02  0.70059936983E+01 -0.18433350649E+02  0.12849230594E+03  0.12509000000E+03 0.  0.
<mgrwt>
<rscale>  2 0.44498338E+03</rscale>
<asrwt>0</asrwt>
<pdfrwt beam="1">  1       21 0.53141310E-01 0.44498338E+03</pdfrwt>
<pdfrwt beam="2">  1       21 0.20145474E-01 0.44498338E+03</pdfrwt>
<totfact> 0.70854737E+04</totfact>
</mgrwt>
</event>
<event>
 7    0  0.4709932E-002  0.4523194E+03  0.7546771E-02  0.1027033E+00
         21   -1    0    0  502  501  0.00000000000E+00  0.00000000000E+00  0.43672348613E+03  0.43672348613E+03  0.00000000000E+00 0. -1.
         21   -1    0    0  501  502 -0.00000000000E+00 -0.00000000000E+00 -0.11711807638E+03  0.11711807638E+03  0.00000000000E+00 0. -1.
      99926    2    1    2    0    0  0.14210854715E-13 -0.71054273576E-14  0.31960540974E+03  0.55384156251E+03  0.45231942079E+03 0.  0.
      99925    2    3    3    0    0  0.95722481410E+02 -0.42072085330E+02  0.15729709834E+03  0.32378863412E+03  0.26299020633E+03 0.  0.
         25    1    3    3    0    0 -0.95722481410E+02  0.42072085330E+02  0.16230831141E+03  0.23005292840E+03  0.12509000000E+03 0.  0.
         25    1    4    4    0    0  0.56731251215E+01 -0.22067961215E+02  0.79797421238E+02  0.15011434241E+03  0.12509000000E+03 0.  0.
         25    1    4    4    0    0  0.90049356288E+02 -0.20004124116E+02  0.77499677097E+02  0.17367429171E+03  0.12509000000E+03 0.  0.
<mgrwt>
<rscale>  2 0.45231942E+03</rscale>
<asrwt>0</asrwt>
<pdfrwt beam="1">  1       21 0.64224042E-01 0.45231942E+03</pdfrwt>
<pdfrwt beam="2">  1       21 0.17223247E-01 0.45231942E+03</pdfrwt>
<totfact> 0.62937459E+04</totfact>
</mgrwt>
</event>
<event>
 7    0  0.4709932E-002  0.4566355E+03  0.7546771E-02  0.1025762E+00
         21   -1    0    0  502  501  0.00000000000E+00  0.00000000000E+00  0.16119640937E+04  0.16119640937E+04  0.00000000000E+00 0.  1.
         21   -1    0    0  501  502 -0.00000000000E+00 -0.00000000000E+00 -0.32338803338E+02  0.32338803338E+02  0.00000000000E+00 0.  1.
      99926    2    1    2    0    0  0.00000000000E+00  0.00000000000E+00  0.15796252904E+04  0.16443028971E+04  0.45663547744E+03 0.  0.
      99925    2    3    3    0    0  0.77592815325E+02 -0.74732465410E+02  0.85101616003E+03  0.89722568598E+03  0.26302060866E+03 0.  0.
         25    1    3    3    0    0 -0.77592815325E+02  0.74732465410E+02  0.72860913035E+03  0.74707721107E+03  0.12509000000E+03 0.  0.
         25    1    4    4    0    0  0.66506377431E+02 -0.69089063404E+02  0.50860228586E+03  0.53246613996E+03  0.12509000000E+03 0.  0.
         25    1    4    4    0    0  0.11086437894E+02 -0.56434020063E+01  0.34241387417E+03  0.36475954602E+03  0.12509000000E+03 0.  0.
<mgrwt>
<rscale>  2 0.45663548E+03</rscale>
<asrwt>0</asrwt>
<pdfrwt beam="1">  1       21 0.23705349E+00 0.45663548E+03</pdfrwt>
<pdfrwt beam="2">  1       21 0.47557075E-02 0.45663548E+03</pdfrwt>
<totfact> 0.20189313E+04</totfact>
</mgrwt>
</event>
<event>
 7    0  0.4709932E-002  0.4523349E+03  0.7546771E-02  0.1027028E+00
         21   -1    0    0  502  501  0.00000000000E+00  0.00000000000E+00  0.13867076199E+04  0.13867076199E+04  0.00000000000E+00 0.  1.
         21   -1    0    0  501  502 -0.00000000000E+00 -0.00000000000E+00 -0.36887167365E+02  0.36887167365E+02  0.00000000000E+00 0.  1.
      99926    2    1    2    0    0  0.71054273576E-14 -0.14210854715E-13  0.13498204525E+04  0.14235947872E+04  0.45233490274E+03 0.  0.
      99925    2    3    3    0    0 -0.46000320455E+02  0.94705321799E+02  0.95855031585E+03  0.99953706074E+03  0.26300285231E+03 0.  0.
         25    1    4    4    0    0 -0.63158564224E+02  0.59313573725E+02  0.51447948920E+03  0.53651072419E+03  0.12509000000E+03 0.  0.
         25    1    4    4    0    0  0.17158243769E+02  0.35391748074E+02  0.44407082665E+03  0.46302633656E+03  0.12509000000E+03 0.  0.
         25    1    3    3    0    0  0.46000320455E+02 -0.94705321799E+02  0.39127013666E+03  0.42405772650E+03  0.12509000000E+03 0.  0.
<mgrwt>
<rscale>  2 0.45233490E+03</rscale>
<asrwt>0</asrwt>
<pdfrwt beam="1">  1       21 0.20392756E+00 0.45233490E+03</pdfrwt>
<pdfrwt beam="2">  1       21 0.54245843E-02 0.45233490E+03</pdfrwt>
<totfact> 0.26249397E+04</totfact>
</mgrwt>
</event>
<event>
 7    0  0.4709932E-002  0.4570882E+03  0.7546771E-02  0.1025629E+00
         21   -1    0    0  502  501  0.00000000000E+00  0.00000000000E+00  0.15543772672E+03  0.15543772672E+03  0.00000000000E+00 0.  1.
         21   -1    0    0  501  502 -0.00000000000E+00 -0.00000000000E+00 -0.33603433642E+03  0.33603433642E+03  0.00000000000E+00 0.  1.
      99926    2    1    2    0    0  0.00000000000E+00  0.00000000000E+00 -0.18059660970E+03  0.49147206314E+03  0.45708823372E+03 0.  0.
      99925    2    3    3    0    0  0.89339282185E+02 -0.67024592538E+02 -0.84249323211E+02  0.29807063848E+03  0.26320021602E+03 0.  0.
         25    1    4    4    0    0  0.40696856869E+02 -0.61596622867E+02 -0.74888970861E+02  0.16342045210E+03  0.12509000000E+03 0.  0.
         25    1    4    4    0    0  0.48642425316E+02 -0.54279696717E+01 -0.93603523504E+01  0.13465018638E+03  0.12509000000E+03 0.  0.
         25    1    3    3    0    0 -0.89339282185E+02  0.67024592538E+02 -0.96347286491E+02  0.19340142466E+03  0.12509000000E+03 0.  0.
<mgrwt>
<rscale>  2 0.45708823E+03</rscale>
<asrwt>0</asrwt>
<pdfrwt beam="1">  1       21 0.22858489E-01 0.45708823E+03</pdfrwt>
<pdfrwt beam="2">  1       21 0.49416814E-01 0.45708823E+03</pdfrwt>
<totfact> 0.64793212E+04</totfact>
</mgrwt>
</event>
<event>
 7    0  0.4709932E-002  0.4532545E+03  0.7546771E-02  0.1026756E+00
         21   -1    0    0  502  501  0.00000000000E+00  0.00000000000E+00  0.23448168432E+03  0.23448168432E+03  0.00000000000E+00 0.  1.
         21   -1    0    0  501  502 -0.00000000000E+00 -0.00000000000E+00 -0.21903591773E+03  0.21903591773E+03  0.00000000000E+00 0.  1.
      99926    2    1    2    0    0  0.00000000000E+00  0.71054273576E-14  0.15445766587E+02  0.45351760204E+03  0.45325450208E+03 0.  0.
      99925    2    3    3    0    0  0.99629182601E+02 -0.35148311555E+02  0.45821476381E+02  0.28698961738E+03  0.26287269724E+03 0.  0.
         25    1    4    4    0    0  0.85204399604E+02 -0.11427742549E+01  0.39408508059E+02  0.15640215552E+03  0.12509000000E+03 0.  0.
         25    1    4    4    0    0  0.14424782997E+02 -0.34005537300E+02  0.64129683213E+01  0.13058746186E+03  0.12509000000E+03 0.  0.
         25    1    3    3    0    0 -0.99629182601E+02  0.35148311555E+02 -0.30375709794E+02  0.16652798466E+03  0.12509000000E+03 0.  0.
<mgrwt>
<rscale>  2 0.45325450E+03</rscale>
<asrwt>0</asrwt>
<pdfrwt beam="1">  1       21 0.34482601E-01 0.45325450E+03</pdfrwt>
<pdfrwt beam="2">  1       21 0.32211164E-01 0.45325450E+03</pdfrwt>
<totfact> 0.69619099E+04</totfact>
</mgrwt>
</event>
<event>
 7    0  0.4709932E-002  0.4545301E+03  0.7546771E-02  0.1026380E+00
         21   -1    0    0  502  501  0.00000000000E+00  0.00000000000E+00  0.79853877807E+03  0.79853877807E+03  0.00000000000E+00 0.  1.
         21   -1    0    0  501  502 -0.00000000000E+00 -0.00000000000E+00 -0.64679889900E+02  0.64679889900E+02  0.00000000000E+00 0.  1.
      99926    2    1    2    0    0  0.00000000000E+00  0.00000000000E+00  0.73385888817E+03  0.86321866797E+03  0.45453008810E+03 0.  0.
      99925    2    3    3    0    0  0.51107922766E+02 -0.61664054618E+02  0.61277775754E+03  0.67158718909E+03  0.26290358883E+03 0.  0.
         25    1    4    4    0    0  0.47294339997E+02 -0.19604105360E+02  0.23114543936E+03  0.26776257726E+03  0.12509000000E+03 0.  0.
         25    1    4    4    0    0  0.38135827691E+01 -0.42059949258E+02  0.38163231818E+03  0.40382461184E+03  0.12509000000E+03 0.  0.
         25    1    3    3    0    0 -0.51107922766E+02  0.61664054618E+02  0.12108113063E+03  0.19163147887E+03  0.12509000000E+03 0.  0.
<mgrwt>
<rscale>  2 0.45453009E+03</rscale>
<asrwt>0</asrwt>
<pdfrwt beam="1">  1       21 0.11743217E+00 0.45453009E+03</pdfrwt>
<pdfrwt beam="2">  1       21 0.95117490E-02 0.45453009E+03</pdfrwt>
<totfact> 0.45019363E+04</totfact>
</mgrwt>
</event>
<event>
 7    0  0.4709932E-002  0.4531264E+03  0.7546771E-02  0.1026794E+00
         21   -1    0    0  502  501  0.00000000000E+00  0.00000000000E+00  0.68579379589E+03  0.68579379589E+03  0.00000000000E+00 0.  1.
         21   -1    0    0  501  502 -0.00000000000E+00 -0.00000000000E+00 -0.74848857608E+02  0.74848857608E+02  0.00000000000E+00 0.  1.
      99926    2    1    2    0    0  0.35527136788E-14  0.00000000000E+00  0.61094493829E+03  0.76064265350E+03  0.45312639375E+03 0.  0.
      99925    2    3    3    0    0 -0.30796385979E+02 -0.95562534317E+02  0.46614680366E+03  0.54455326634E+03  0.26299201881E+03 0.  0.
         25    1    4    4    0    0  0.25174575359E+02 -0.41693237722E+02  0.21906553636E+03  0.25692275617E+03  0.12509000000E+03 0.  0.
         25    1    3    3    0    0  0.30796385979E+02  0.95562534317E+02  0.14479813462E+03  0.21608938716E+03  0.12509000000E+03 0.  0.
         25    1    4    4    0    0 -0.55970961338E+02 -0.53869296595E+02  0.24708126731E+03  0.28763051017E+03  0.12509000000E+03 0.  0.
<mgrwt>
<rscale>  2 0.45312639E+03</rscale>
<asrwt>0</asrwt>
<pdfrwt beam="1">  1       21 0.10085203E+00 0.45312639E+03</pdfrwt>
<pdfrwt beam="2">  1       21 0.11007185E-01 0.45312639E+03</pdfrwt>
<totfact> 0.50465244E+04</totfact>
</mgrwt>
</event>
<event>
 7    0  0.4709932E-002  0.4570991E+03  0.7546771E-02  0.1025626E+00
         21   -1    0    0  502  501  0.00000000000E+00  0.00000000000E+00  0.13254649056E+03  0.13254649056E+03  0.00000000000E+00 0.  1.
         21   -1    0    0  501  502 -0.00000000000E+00 -0.00000000000E+00 -0.39408736442E+03  0.39408736442E+03  0.00000000000E+00 0.  1.
      99926    2    1    2    0    0  0.00000000000E+00 -0.35527136788E-14 -0.26154087386E+03  0.52663385497E+03  0.45709910140E+03 0.  0.
      99925    2    3    3    0    0  0.92207827902E+02 -0.17951407277E+02 -0.87648026284E+02  0.29273052646E+03  0.26302936730E+03 0.  0.
         25    1    4    4    0    0  0.87546876822E+02 -0.20694669780E+02 -0.49880973289E+02  0.16195167364E+03  0.12509000000E+03 0.  0.
         25    1    3    3    0    0 -0.92207827902E+02  0.17951407277E+02 -0.17389284757E+03  0.23390332851E+03  0.12509000000E+03 0.  0.
         25    1    4    4    0    0  0.46609510804E+01  0.27432625028E+01 -0.37767052995E+02  0.13077885282E+03  0.12509000000E+03 0.  0.
<mgrwt>
<rscale>  2 0.45709910E+03</rscale>
<asrwt>0</asrwt>
<pdfrwt beam="1">  1       21 0.19492131E-01 0.45709910E+03</pdfrwt>
<pdfrwt beam="2">  1       21 0.57954024E-01 0.45709910E+03</pdfrwt>
<totfact> 0.62390319E+04</totfact>
</mgrwt>
</event>
<event>
 7    0  0.4709932E-002  0.4531195E+03  0.7546771E-02  0.1026796E+00
         21   -1    0    0  502  501  0.00000000000E+00  0.00000000000E+00  0.12696455767E+04  0.12696455767E+04  0.00000000000E+00 0. -1.
         21   -1    0    0  501  502 -0.00000000000E+00 -0.00000000000E+00 -0.40428071036E+02  0.40428071036E+02  0.00000000000E+00 0. -1.
      99926    2    1    2    0    0  0.17763568394E-14  0.14210854715E-13  0.12292175057E+04  0.13100736478E+04  0.45311950550E+03 0.  0.
      99925    2    3    3    0    0 -0.12590718449E+02 -0.11010480780E+03  0.74054778631E+03  0.79361726274E+03  0.26293676239E+03 0.  0.
         25    1    4    4    0    0 -0.23245051075E+02 -0.95211476449E+02  0.41100808092E+03  0.44065940172E+03  0.12509000000E+03 0.  0.
         25    1    3    3    0    0  0.12590718449E+02  0.11010480780E+03  0.48866971937E+03  0.51645638501E+03  0.12509000000E+03 0.  0.
         25    1    4    4    0    0  0.10654332626E+02 -0.14893331353E+02  0.32953970540E+03  0.35295786102E+03  0.12509000000E+03 0.  0.
<mgrwt>
<rscale>  2 0.45311951E+03</rscale>
<asrwt>0</asrwt>
<pdfrwt beam="1">  1       21 0.18671256E+00 0.45311951E+03</pdfrwt>
<pdfrwt beam="2">  1       21 0.59453054E-02 0.45311951E+03</pdfrwt>
<totfact> 0.29248921E+04</totfact>
</mgrwt>
</event>
<event>
 7    0  0.4709932E-002  0.4547466E+03  0.7546771E-02  0.1026316E+00
         21   -1    0    0  502  501  0.00000000000E+00  0.00000000000E+00  0.51865886050E+02  0.51865886050E+02  0.00000000000E+00 0.  1.
         21   -1    0    0  501  502 -0.00000000000E+00 -0.00000000000E+00 -0.99677495864E+03  0.99677495864E+03  0.00000000000E+00 0.  1.
      99926    2    1    2    0    0 -0.17763568394E-14  0.00000000000E+00 -0.94490907259E+03  0.10486408447E+04  0.45474659503E+03 0.  0.
      99925    2    3    3    0    0 -0.72944317760E+01 -0.91283816472E+02 -0.43516990330E+03  0.51584869695E+03  0.26142128743E+03 0.  0.
         25    1    4    4    0    0  0.24058434349E+02 -0.72797012365E+02 -0.23154941312E+03  0.27411831768E+03  0.12509000000E+03 0.  0.
         25    1    3    3    0    0  0.72944317760E+01  0.91283816472E+02 -0.50973916930E+03  0.53279214774E+03  0.12509000000E+03 0.  0.
         25    1    4    4    0    0 -0.31352866125E+02 -0.18486804108E+02 -0.20362049018E+03  0.24173037927E+03  0.12509000000E+03 0.  0.
<mgrwt>
<rscale>  2 0.45474660E+03</rscale>
<asrwt>0</asrwt>
<pdfrwt beam="1">  1       21 0.76273368E-02 0.45474660E+03</pdfrwt>
<pdfrwt beam="2">  1       21 0.14658454E+00 0.45474660E+03</pdfrwt>
<totfact> 0.37401221E+04</totfact>
</mgrwt>
</event>
<event>
 7    0  0.4709932E-002  0.4540775E+03  0.7546771E-02  0.1026513E+00
         21   -1    0    0  502  501  0.00000000000E+00  0.00000000000E+00  0.14482871518E+04  0.14482871518E+04  0.00000000000E+00 0. -1.
         21   -1    0    0  501  502 -0.00000000000E+00 -0.00000000000E+00 -0.35591412765E+02  0.35591412765E+02  0.00000000000E+00 0. -1.
      99926    2    1    2    0    0  0.00000000000E+00  0.00000000000E+00  0.14126957391E+04  0.14838785646E+04  0.45407746397E+03 0.  0.
      99925    2    3    3    0    0 -0.44032350625E+01 -0.63005249799E+02  0.11932861430E+04  0.12235381549E+04  0.26291585611E+03 0.  0.
         25    1    4    4    0    0  0.92911167020E+01 -0.63611828379E+02  0.52527248638E+03  0.54377521331E+03  0.12509000000E+03 0.  0.
         25    1    4    4    0    0 -0.13694351764E+02  0.60657858054E+00  0.66801365664E+03  0.67976294159E+03  0.12509000000E+03 0.  0.
         25    1    3    3    0    0  0.44032350625E+01  0.63005249799E+02  0.21940959603E+03  0.26034040968E+03  0.12509000000E+03 0.  0.
<mgrwt>
<rscale>  2 0.45407746E+03</rscale>
<asrwt>0</asrwt>
<pdfrwt beam="1">  1       21 0.21298337E+00 0.45407746E+03</pdfrwt>
<pdfrwt beam="2">  1       21 0.52340322E-02 0.45407746E+03</pdfrwt>
<totfact> 0.24351054E+04</totfact>
</mgrwt>
</event>
<event>
 7    0  0.5871001E-002  0.4215320E+03  0.7546771E-02  0.1036569E+00
         21   -1    0    0  502  501  0.00000000000E+00  0.00000000000E+00  0.61290026463E+03  0.61290026463E+03  0.00000000000E+00 0.  1.
         21   -1    0    0  501  502 -0.00000000000E+00 -0.00000000000E+00 -0.72478851270E+02  0.72478851270E+02  0.00000000000E+00 0.  1.
      99926    2    1    2    0    0  0.00000000000E+00 -0.71054273576E-14  0.54042141336E+03  0.68537911590E+03  0.42153200174E+03 0.  0.
      99925    2    3    3    0    0 -0.55078995011E+02  0.47508895120E+02  0.30758810115E+03  0.41124475071E+03  0.26309886774E+03 0.  0.
         25    1    4    4    0    0 -0.53425858738E+02  0.33812615119E+02  0.11558229255E+03  0.18167110330E+03  0.12509000000E+03 0.  0.
         25    1    4    4    0    0 -0.16531362727E+01  0.13696280001E+02  0.19200580861E+03  0.22957364741E+03  0.12509000000E+03 0.  0.
         25    1    3    3    0    0  0.55078995011E+02 -0.47508895120E+02  0.23283331221E+03  0.27413436519E+03  0.12509000000E+03 0.  0.
<mgrwt>
<rscale>  2 0.42153200E+03</rscale>
<asrwt>0</asrwt>
<pdfrwt beam="1">  1       21 0.90132389E-01 0.42153200E+03</pdfrwt>
<pdfrwt beam="2">  1       21 0.10658655E-01 0.42153200E+03</pdfrwt>
<totfact> 0.70530743E+04</totfact>
</mgrwt>
</event>
<event>
 7    0  0.4709932E-002  0.4549394E+03  0.7546771E-02  0.1026259E+00
         21   -1    0    0  502  501  0.00000000000E+00  0.00000000000E+00  0.31161703192E+03  0.31161703192E+03  0.00000000000E+00 0.  1.
         21   -1    0    0  501  502 -0.00000000000E+00 -0.00000000000E+00 -0.16604507850E+03  0.16604507850E+03  0.00000000000E+00 0.  1.
      99926    2    1    2    0    0 -0.88817841970E-15  0.00000000000E+00  0.14557195342E+03  0.47766211041E+03  0.45493944444E+03 0.  0.
      99925    2    3    3    0    0  0.55701297839E+01  0.80944598008E+02  0.88182721438E+01  0.27534520125E+03  0.26297179247E+03 0.  0.
         25    1    4    4    0    0  0.30763523132E+02  0.44954420452E+02 -0.24557449523E+02  0.13862853494E+03  0.12509000000E+03 0.  0.
         25    1    4    4    0    0 -0.25193393348E+02  0.35990177556E+02  0.33375721667E+02  0.13671666631E+03  0.12509000000E+03 0.  0.
         25    1    3    3    0    0 -0.55701297839E+01 -0.80944598008E+02  0.13675368127E+03  0.20231690917E+03  0.12509000000E+03 0.  0.
<mgrwt>
<rscale>  2 0.45493944E+03</rscale>
<asrwt>0</asrwt>
<pdfrwt beam="1">  1       21 0.45826034E-01 0.45493944E+03</pdfrwt>
<pdfrwt beam="2">  1       21 0.24418394E-01 0.45493944E+03</pdfrwt>
<totfact> 0.66902822E+04</totfact>
</mgrwt>
</event>
<event>
 7    0  0.4709932E-002  0.4459564E+03  0.7546771E-02  0.1028935E+00
         21   -1    0    0  502  501  0.00000000000E+00  0.00000000000E+00  0.17742859204E+03  0.17742859204E+03  0.00000000000E+00 0.  1.
         21   -1    0    0  501  502 -0.00000000000E+00 -0.00000000000E+00 -0.28022135732E+03  0.28022135732E+03  0.00000000000E+00 0.  1.
      99926    2    1    2    0    0  0.00000000000E+00 -0.17763568394E-14 -0.10279276527E+03  0.45764994936E+03  0.44595641441E+03 0.  0.
      99925    2    3    3    0    0 -0.10152595412E+02 -0.75889407387E+01  0.41220510219E+02  0.26647464019E+03  0.26296185310E+03 0.  0.
         25    1    4    4    0    0  0.32191472454E+02  0.12097117761E+02  0.18922438013E+02  0.13110376775E+03  0.12509000000E+03 0.  0.
         25    1    4    4    0    0 -0.42344067866E+02 -0.19686058499E+02  0.22298072206E+02  0.13537087245E+03  0.12509000000E+03 0.  0.
         25    1    3    3    0    0  0.10152595412E+02  0.75889407387E+01 -0.14401327549E+03  0.19117530916E+03  0.12509000000E+03 0.  0.
<mgrwt>
<rscale>  2 0.44595641E+03</rscale>
<asrwt>0</asrwt>
<pdfrwt beam="1">  1       21 0.26092440E-01 0.44595641E+03</pdfrwt>
<pdfrwt beam="2">  1       21 0.41209023E-01 0.44595641E+03</pdfrwt>
<totfact> 0.73498074E+04</totfact>
</mgrwt>
</event>
<event>
 7    0  0.4709932E-002  0.4615725E+03  0.7546771E-02  0.1024326E+00
         21   -1    0    0  502  501  0.00000000000E+00  0.00000000000E+00  0.74328304875E+03  0.74328304875E+03  0.00000000000E+00 0.  1.
         21   -1    0    0  501  502 -0.00000000000E+00 -0.00000000000E+00 -0.71658141659E+02  0.71658141659E+02  0.00000000000E+00 0.  1.
      99926    2    1    2    0    0  0.00000000000E+00  0.00000000000E+00  0.67162490709E+03  0.81494119041E+03  0.46157245152E+03 0.  0.
      99925    2    3    3    0    0  0.10658799760E+03 -0.18540647516E+02  0.50831962359E+03  0.58251726616E+03  0.26312120554E+03 0.  0.
         25    1    3    3    0    0 -0.10658799760E+03  0.18540647516E+02  0.16330528350E+03  0.23242392424E+03  0.12509000000E+03 0.  0.
         25    1    4    4    0    0  0.87999656402E+02 -0.11760426613E+02  0.22656251556E+03  0.27360615621E+03  0.12509000000E+03 0.  0.
         25    1    4    4    0    0  0.18588341200E+02 -0.67802209026E+01  0.28175710803E+03  0.30891110995E+03  0.12509000000E+03 0.  0.
<mgrwt>
<rscale>  2 0.46157245E+03</rscale>
<asrwt>0</asrwt>
<pdfrwt beam="1">  1       21 0.10930633E+00 0.46157245E+03</pdfrwt>
<pdfrwt beam="2">  1       21 0.10537962E-01 0.46157245E+03</pdfrwt>
<totfact> 0.44700267E+04</totfact>
</mgrwt>
</event>
<event>
 6    0  0.4709932E-002  0.4526078E+03  0.7546771E-02  0.1026947E+00
         21   -1    0    0  502  501  0.00000000000E+00  0.00000000000E+00  0.60828032789E+02  0.60828032789E+02  0.00000000000E+00 0.  1.
         21   -1    0    0  501  502 -0.00000000000E+00 -0.00000000000E+00 -0.84193826482E+03  0.84193826482E+03  0.00000000000E+00 0.  1.
      99926    2    1    2    0    0  0.00000000000E+00 -0.71054273576E-14 -0.78111023203E+03  0.90276629761E+03  0.45260777006E+03 0.  0.
         25    1    3    3    0    0  0.13074400952E+02 -0.41342863782E+01 -0.23703593725E+03  0.26836835866E+03  0.12509000000E+03 0.  0.
         25    1    3    3    0    0 -0.73251434110E+02  0.60267976456E+02 -0.38581366978E+03  0.41653054807E+03  0.12509000000E+03 0.  0.
         25    1    3    3    0    0  0.60177033157E+02 -0.56133690078E+02 -0.15826062500E+03  0.21786739087E+03  0.12509000000E+03 0.  0.
<mgrwt>
<rscale>  2 0.45260777E+03</rscale>
<asrwt>0</asrwt>
<pdfrwt beam="1">  1       21 0.89452999E-02 0.45260777E+03</pdfrwt>
<pdfrwt beam="2">  1       21 0.12381444E+00 0.45260777E+03</pdfrwt>
<totfact> 0.43931344E+04</totfact>
</mgrwt>
</event>
<event>
 7    0  0.4709932E-002  0.4518416E+03  0.7546771E-02  0.1027174E+00
         21   -1    0    0  502  501  0.00000000000E+00  0.00000000000E+00  0.34283275791E+03  0.34283275791E+03  0.00000000000E+00 0.  1.
         21   -1    0    0  501  502 -0.00000000000E+00 -0.00000000000E+00 -0.14887784138E+03  0.14887784138E+03  0.00000000000E+00 0.  1.
      99926    2    1    2    0    0  0.17763568394E-14  0.71054273576E-14  0.19395491653E+03  0.49171059928E+03  0.45184156936E+03 0.  0.
      99925    2    3    3    0    0 -0.70071638669E+01  0.40480095101E+02  0.23363652146E+03  0.35419741332E+03  0.26302479921E+03 0.  0.
         25    1    4    4    0    0 -0.17916062845E+02  0.51012052837E+02  0.90948160299E+02  0.16383617062E+03  0.12509000000E+03 0.  0.
         25    1    4    4    0    0  0.10908898978E+02 -0.10531957736E+02  0.14268836116E+03  0.19036124269E+03  0.12509000000E+03 0.  0.
         25    1    3    3    0    0  0.70071638669E+01 -0.40480095101E+02 -0.39681604924E+02  0.13751318596E+03  0.12509000000E+03 0.  0.
<mgrwt>
<rscale>  2 0.45184157E+03</rscale>
<asrwt>0</asrwt>
<pdfrwt beam="1">  1       21 0.50416582E-01 0.45184157E+03</pdfrwt>
<pdfrwt beam="2">  1       21 0.21893800E-01 0.45184157E+03</pdfrwt>
<totfact> 0.67534540E+04</totfact>
</mgrwt>
</event>
<event>
 7    0  0.4709932E-002  0.4525141E+03  0.7546771E-02  0.1026975E+00
         21   -1    0    0  502  501  0.00000000000E+00  0.00000000000E+00  0.75139562044E+03  0.75139562044E+03  0.00000000000E+00 0. -1.
         21   -1    0    0  501  502 -0.00000000000E+00 -0.00000000000E+00 -0.68129571517E+02  0.68129571517E+02  0.00000000000E+00 0. -1.
      99926    2    1    2    0    0  0.00000000000E+00  0.00000000000E+00  0.68326604893E+03  0.81952519196E+03  0.45251413972E+03 0.  0.
      99925    2    3    3    0    0  0.10606651405E+03 -0.30340585994E+02  0.41219180969E+03  0.50124951297E+03  0.26301773650E+03 0.  0.
         25    1    4    4    0    0  0.54561994063E+02 -0.41558019249E+02  0.26542104445E+03  0.30133024922E+03  0.12509000000E+03 0.  0.
         25    1    4    4    0    0  0.51504519983E+02  0.11217433255E+02  0.14677076524E+03  0.19991926374E+03  0.12509000000E+03 0.  0.
         25    1    3    3    0    0 -0.10606651405E+03  0.30340585994E+02  0.27107423924E+03  0.31827567900E+03  0.12509000000E+03 0.  0.
<mgrwt>
<rscale>  2 0.45251414E+03</rscale>
<asrwt>0</asrwt>
<pdfrwt beam="1">  1       21 0.11049935E+00 0.45251414E+03</pdfrwt>
<pdfrwt beam="2">  1       21 0.10019055E-01 0.45251414E+03</pdfrwt>
<totfact> 0.47759661E+04</totfact>
</mgrwt>
</event>
<event>
 7    0  0.4709932E-002  0.4493108E+03  0.7546771E-02  0.1027928E+00
         21   -1    0    0  502  501  0.00000000000E+00  0.00000000000E+00  0.26757145688E+04  0.26757145688E+04  0.00000000000E+00 0. -1.
         21   -1    0    0  501  502 -0.00000000000E+00 -0.00000000000E+00 -0.18862267708E+02  0.18862267708E+02  0.00000000000E+00 0. -1.
      99926    2    1    2    0    0  0.00000000000E+00  0.00000000000E+00  0.26568523011E+04  0.26945768365E+04  0.44931078111E+03 0.  0.
      99925    2    3    3    0    0 -0.39665187721E+02 -0.92084408958E+02  0.19166686273E+04  0.19372313113E+04  0.26304688014E+03 0.  0.
         25    1    4    4    0    0 -0.11114471968E+02 -0.84276283260E+02  0.92845698869E+03  0.94069437724E+03  0.12509000000E+03 0.  0.
         25    1    3    3    0    0  0.39665187721E+02  0.92084408958E+02  0.74018367382E+03  0.75734552522E+03  0.12509000000E+03 0.  0.
         25    1    4    4    0    0 -0.28550715754E+02 -0.78081256976E+01  0.98821163862E+03  0.99653693409E+03  0.12509000000E+03 0.  0.
<mgrwt>
<rscale>  2 0.44931078E+03</rscale>
<asrwt>0</asrwt>
<pdfrwt beam="1">  1       21 0.39348718E+00 0.44931078E+03</pdfrwt>
<pdfrwt beam="2">  1       21 0.27738647E-02 0.44931078E+03</pdfrwt>
<totfact> 0.55818624E+03</totfact>
</mgrwt>
</event>
<event>
 7    0  0.4709932E-002  0.4548110E+03  0.7546771E-02  0.1026297E+00
         21   -1    0    0  502  501  0.00000000000E+00  0.00000000000E+00  0.14387111493E+03  0.14387111493E+03  0.00000000000E+00 0.  1.
         21   -1    0    0  501  502 -0.00000000000E+00 -0.00000000000E+00 -0.35944154614E+03  0.35944154614E+03  0.00000000000E+00 0.  1.
      99926    2    1    2    0    0 -0.71054273576E-14  0.00000000000E+00 -0.21557043121E+03  0.50331266106E+03  0.45481097609E+03 0.  0.
      99925    2    3    3    0    0  0.41641336504E+02  0.10094766136E+03 -0.10326016452E+03  0.30284935932E+03  0.26292706522E+03 0.  0.
         25    1    4    4    0    0  0.56960866457E+02  0.71247731419E+02 -0.48148934527E+02  0.16213145141E+03  0.12509000000E+03 0.  0.
         25    1    4    4    0    0 -0.15319529953E+02  0.29699929943E+02 -0.55111229990E+02  0.14071790791E+03  0.12509000000E+03 0.  0.
         25    1    3    3    0    0 -0.41641336504E+02 -0.10094766136E+03 -0.11231026669E+03  0.20046330174E+03  0.12509000000E+03 0.  0.
<mgrwt>
<rscale>  2 0.45481098E+03</rscale>
<asrwt>0</asrwt>
<pdfrwt beam="1">  1       21 0.21157517E-01 0.45481098E+03</pdfrwt>
<pdfrwt beam="2">  1       21 0.52859051E-01 0.45481098E+03</pdfrwt>
<totfact> 0.65136234E+04</totfact>
</mgrwt>
</event>
<event>
 7    0  0.4709932E-002  0.4551390E+03  0.7546771E-02  0.1026201E+00
         21   -1    0    0  502  501  0.00000000000E+00  0.00000000000E+00  0.15007567371E+03  0.15007567371E+03  0.00000000000E+00 0.  1.
         21   -1    0    0  501  502 -0.00000000000E+00 -0.00000000000E+00 -0.34507840922E+03  0.34507840922E+03  0.00000000000E+00 0.  1.
      99926    2    1    2    0    0  0.35527136788E-14  0.00000000000E+00 -0.19500273551E+03  0.49515408293E+03  0.45513898865E+03 0.  0.
      99925    2    3    3    0    0  0.30912806121E+02 -0.79122471056E+02 -0.40790095758E+02  0.27917951645E+03  0.26279536428E+03 0.  0.
         25    1    4    4    0    0  0.17743345412E+02 -0.40431606668E+02  0.20116959530E+02  0.13417056788E+03  0.12509000000E+03 0.  0.
         25    1    4    4    0    0  0.13169460709E+02 -0.38690864388E+02 -0.60907055289E+02  0.14500894857E+03  0.12509000000E+03 0.  0.
         25    1    3    3    0    0 -0.30912806121E+02  0.79122471056E+02 -0.15421263975E+03  0.21597456648E+03  0.12509000000E+03 0.  0.
<mgrwt>
<rscale>  2 0.45513899E+03</rscale>
<asrwt>0</asrwt>
<pdfrwt beam="1">  1       21 0.22069952E-01 0.45513899E+03</pdfrwt>
<pdfrwt beam="2">  1       21 0.50746824E-01 0.45513899E+03</pdfrwt>
<totfact> 0.65540110E+04</totfact>
</mgrwt>
</event>
<event>
 7    0  0.4709932E-002  0.4559663E+03  0.7546771E-02  0.1025958E+00
         21   -1    0    0  502  501  0.00000000000E+00  0.00000000000E+00  0.18395759567E+03  0.18395759567E+03  0.00000000000E+00 0.  1.
         21   -1    0    0  501  502 -0.00000000000E+00 -0.00000000000E+00 -0.28254514720E+03  0.28254514720E+03  0.00000000000E+00 0.  1.
      99926    2    1    2    0    0 -0.35527136788E-14 -0.14210854715E-13 -0.98587551529E+02  0.46650274286E+03  0.45596634063E+03 0.  0.
      99925    2    3    3    0    0 -0.29895817427E+02 -0.10626317969E+03 -0.91404790086E+02  0.29951554749E+03  0.26300019825E+03 0.  0.
         25    1    4    4    0    0  0.33819103421E+01 -0.89086871945E+02 -0.62139643010E+02  0.16570078878E+03  0.12509000000E+03 0.  0.
         25    1    3    3    0    0  0.29895817427E+02  0.10626317969E+03 -0.71827614428E+01  0.16698719538E+03  0.12509000000E+03 0.  0.
         25    1    4    4    0    0 -0.33277727769E+02 -0.17176307746E+02 -0.29265147076E+02  0.13381475870E+03  0.12509000000E+03 0.  0.
<mgrwt>
<rscale>  2 0.45596634E+03</rscale>
<asrwt>0</asrwt>
<pdfrwt beam="1">  1       21 0.27052588E-01 0.45596634E+03</pdfrwt>
<pdfrwt beam="2">  1       21 0.41550756E-01 0.45596634E+03</pdfrwt>
<totfact> 0.67180830E+04</totfact>
</mgrwt>
</event>
<event>
 7    0  0.4709932E-002  0.4576142E+03  0.7546771E-02  0.1025475E+00
         21   -1    0    0  502  501  0.00000000000E+00  0.00000000000E+00  0.92720488136E+02  0.92720488136E+02  0.00000000000E+00 0. -1.
         21   -1    0    0  501  502 -0.00000000000E+00 -0.00000000000E+00 -0.56462916678E+03  0.56462916678E+03  0.00000000000E+00 0. -1.
      99926    2    1    2    0    0 -0.14210854715E-13 -0.71054273576E-14 -0.47190867865E+03  0.65734965492E+03  0.45761421289E+03 0.  0.
      99925    2    3    3    0    0  0.92222377926E+02  0.33286805600E+02 -0.38430998853E+03  0.47587233670E+03  0.26295880882E+03 0.  0.
         25    1    3    3    0    0 -0.92222377926E+02 -0.33286805600E+02 -0.87598690119E+02  0.18147731822E+03  0.12509000000E+03 0.  0.
         25    1    4    4    0    0  0.47822463261E+02  0.54859282947E+02 -0.22322618793E+03  0.26603377229E+03  0.12509000000E+03 0.  0.
         25    1    4    4    0    0  0.44399914665E+02 -0.21572477347E+02 -0.16108380059E+03  0.20983856441E+03  0.12509000000E+03 0.  0.
<mgrwt>
<rscale>  2 0.45761421E+03</rscale>
<asrwt>0</asrwt>
<pdfrwt beam="1">  1       21 0.13635365E-01 0.45761421E+03</pdfrwt>
<pdfrwt beam="2">  1       21 0.83033705E-01 0.45761421E+03</pdfrwt>
<totfact> 0.54154771E+04</totfact>
</mgrwt>
</event>
<event>
 7    0  0.4709932E-002  0.4587799E+03  0.7546771E-02  0.1025136E+00
         21   -1    0    0  502  501  0.00000000000E+00  0.00000000000E+00  0.33453520802E+03  0.33453520802E+03  0.00000000000E+00 0.  1.
         21   -1    0    0  501  502 -0.00000000000E+00 -0.00000000000E+00 -0.15729208037E+03  0.15729208037E+03  0.00000000000E+00 0.  1.
      99926    2    1    2    0    0  0.00000000000E+00  0.71054273576E-14  0.17724312765E+03  0.49182728839E+03  0.45877985495E+03 0.  0.
      99925    2    3    3    0    0  0.95196512805E+02 -0.48459809906E+02  0.60572180593E+02  0.29015838347E+03  0.26289193447E+03 0.  0.
         25    1    3    3    0    0 -0.95196512805E+02  0.48459809906E+02  0.11667094706E+03  0.20166890493E+03  0.12509000000E+03 0.  0.
         25    1    4    4    0    0  0.11272883457E+02 -0.16029836066E+02  0.62228416770E+01  0.12676855053E+03  0.12509000000E+03 0.  0.
         25    1    4    4    0    0  0.83923629347E+02 -0.32429973840E+02  0.54349338916E+02  0.16338983294E+03  0.12509000000E+03 0.  0.
<mgrwt>
<rscale>  2 0.45877985E+03</rscale>
<asrwt>0</asrwt>
<pdfrwt beam="1">  1       21 0.49196354E-01 0.45877985E+03</pdfrwt>
<pdfrwt beam="2">  1       21 0.23131188E-01 0.45877985E+03</pdfrwt>
<totfact> 0.63909353E+04</totfact>
</mgrwt>
</event>
<event>
 7    0  0.4709932E-002  0.4518750E+03  0.7546771E-02  0.1027164E+00
         21   -1    0    0  502  501  0.00000000000E+00  0.00000000000E+00  0.27454510959E+03  0.27454510959E+03  0.00000000000E+00 0. -1.
         21   -1    0    0  501  502 -0.00000000000E+00 -0.00000000000E+00 -0.18593575953E+03  0.18593575953E+03  0.00000000000E+00 0. -1.
      99926    2    1    2    0    0  0.00000000000E+00  0.00000000000E+00  0.88609350060E+02  0.46048086912E+03  0.45187499810E+03 0.  0.
      99925    2    3    3    0    0 -0.68487854313E+02  0.57833460586E+02  0.12363824493E+03  0.30265239600E+03  0.26129822396E+03 0.  0.
         25    1    4    4    0    0 -0.15426708869E+02  0.43729480999E+02  0.93072420970E+02  0.16266602134E+03  0.12509000000E+03 0.  0.
         25    1    3    3    0    0  0.68487854313E+02 -0.57833460586E+02 -0.35028894867E+02  0.15782847312E+03  0.12509000000E+03 0.  0.
         25    1    4    4    0    0 -0.53061145444E+02  0.14103979587E+02  0.30565823957E+02  0.13998637466E+03  0.12509000000E+03 0.  0.
<mgrwt>
<rscale>  2 0.45187500E+03</rscale>
<asrwt>0</asrwt>
<pdfrwt beam="1">  1       21 0.40374281E-01 0.45187500E+03</pdfrwt>
<pdfrwt beam="2">  1       21 0.27343494E-01 0.45187500E+03</pdfrwt>
<totfact> 0.69866515E+04</totfact>
</mgrwt>
</event>
<event>
 7    0  0.4709932E-002  0.4573240E+03  0.7546771E-02  0.1025560E+00
         21   -1    0    0  502  501  0.00000000000E+00  0.00000000000E+00  0.52766833588E+03  0.52766833588E+03  0.00000000000E+00 0.  1.
         21   -1    0    0  501  502 -0.00000000000E+00 -0.00000000000E+00 -0.99089361708E+02  0.99089361708E+02  0.00000000000E+00 0.  1.
      99926    2    1    2    0    0  0.00000000000E+00  0.35527136788E-14  0.42857897417E+03  0.62675769759E+03  0.45732403652E+03 0.  0.
      99925    2    3    3    0    0 -0.73707750808E+02  0.23417450471E+02  0.15173605638E+03  0.31327608928E+03  0.26293890506E+03 0.  0.
         25    1    4    4    0    0 -0.25587922047E+02  0.40644519810E+02  0.45910838637E+02  0.14164050250E+03  0.12509000000E+03 0.  0.
         25    1    4    4    0    0 -0.48119828762E+02 -0.17227069339E+02  0.10582521775E+03  0.17163558678E+03  0.12509000000E+03 0.  0.
         25    1    3    3    0    0  0.73707750808E+02 -0.23417450471E+02  0.27684291779E+03  0.31348160830E+03  0.12509000000E+03 0.  0.
<mgrwt>
<rscale>  2 0.45732404E+03</rscale>
<asrwt>0</asrwt>
<pdfrwt beam="1">  1       21 0.77598283E-01 0.45732404E+03</pdfrwt>
<pdfrwt beam="2">  1       21 0.14571965E-01 0.45732404E+03</pdfrwt>
<totfact> 0.56025691E+04</totfact>
</mgrwt>
</event>
<event>
 7    0  0.4709932E-002  0.4503303E+03  0.7546771E-02  0.1027624E+00
         21   -1    0    0  502  501  0.00000000000E+00  0.00000000000E+00  0.56244046482E+03  0.56244046482E+03  0.00000000000E+00 0.  1.
         21   -1    0    0  501  502 -0.00000000000E+00 -0.00000000000E+00 -0.90141723689E+02  0.90141723689E+02  0.00000000000E+00 0.  1.
      99926    2    1    2    0    0  0.00000000000E+00  0.00000000000E+00  0.47229874113E+03  0.65258218850E+03  0.45033033640E+03 0.  0.
      99925    2    3    3    0    0 -0.10049692209E+03  0.14097718465E+02  0.24185915201E+03  0.37142691229E+03  0.26298997080E+03 0.  0.
         25    1    3    3    0    0  0.10049692209E+03 -0.14097718465E+02  0.23043958911E+03  0.28115527622E+03  0.12509000000E+03 0.  0.
         25    1    4    4    0    0 -0.70150874598E+01  0.32689265547E+01  0.10509939396E+03  0.16356432387E+03  0.12509000000E+03 0.  0.
         25    1    4    4    0    0 -0.93481834626E+02  0.10828791911E+02  0.13675975806E+03  0.20786258842E+03  0.12509000000E+03 0.  0.
<mgrwt>
<rscale>  2 0.45033034E+03</rscale>
<asrwt>0</asrwt>
<pdfrwt beam="1">  1       21 0.82711832E-01 0.45033034E+03</pdfrwt>
<pdfrwt beam="2">  1       21 0.13256136E-01 0.45033034E+03</pdfrwt>
<totfact> 0.57647198E+04</totfact>
</mgrwt>
</event>
<event>
 7    0  0.4709932E-002  0.4437721E+03  0.7546771E-02  0.1029596E+00
         21   -1    0    0  502  501  0.00000000000E+00  0.00000000000E+00  0.40708849555E+04  0.40708849555E+04  0.00000000000E+00 0. -1.
         21   -1    0    0  501  502 -0.00000000000E+00 -0.00000000000E+00 -0.12094031287E+02  0.12094031287E+02  0.00000000000E+00 0. -1.
      99926    2    1    2    0    0  0.71054273576E-14 -0.14210854715E-13  0.40587909242E+04  0.40829789868E+04  0.44377205868E+03 0.  0.
      99925    2    3    3    0    0  0.38323852508E+02 -0.94756906698E+02  0.25452899101E+04  0.25608816125E+04  0.26299490045E+03 0.  0.
         25    1    3    3    0    0 -0.38323852508E+02  0.94756906698E+02  0.15135010142E+04  0.15220973744E+04  0.12509000000E+03 0.  0.
         25    1    4    4    0    0  0.12634876026E+02 -0.32175583450E+02  0.15589419875E+04  0.15643345348E+04  0.12509000000E+03 0.  0.
         25    1    4    4    0    0  0.25688976482E+02 -0.62581323248E+02  0.98634792259E+03  0.99654707768E+03  0.12509000000E+03 0.  0.
<mgrwt>
<rscale>  2 0.44377206E+03</rscale>
<asrwt>0</asrwt>
<pdfrwt beam="1">  1       21 0.59865860E+00 0.44377206E+03</pdfrwt>
<pdfrwt beam="2">  1       21 0.17785368E-02 0.44377206E+03</pdfrwt>
<totfact> 0.40890535E+02</totfact>
</mgrwt>
</event>
<event>
 7    0  0.4709932E-002  0.4412947E+03  0.7546771E-02  0.1030350E+00
         21   -1    0    0  502  501  0.00000000000E+00  0.00000000000E+00  0.73937882317E+02  0.73937882317E+02  0.00000000000E+00 0.  1.
         21   -1    0    0  501  502 -0.00000000000E+00 -0.00000000000E+00 -0.65846156524E+03  0.65846156524E+03  0.00000000000E+00 0.  1.
      99926    2    1    2    0    0  0.35527136788E-14  0.00000000000E+00 -0.58452368292E+03  0.73239944756E+03  0.44129470299E+03 0.  0.
      99925    2    3    3    0    0  0.78290316870E+01  0.79874580250E+02 -0.27408720952E+03  0.38821990949E+03  0.26296322441E+03 0.  0.
         25    1    4    4    0    0 -0.32256539848E+02  0.58198968504E+02 -0.13559604613E+03  0.19611578245E+03  0.12509000000E+03 0.  0.
         25    1    3    3    0    0 -0.78290316870E+01 -0.79874580250E+02 -0.31043647340E+03  0.34417953807E+03  0.12509000000E+03 0.  0.
         25    1    4    4    0    0  0.40085571535E+02  0.21675611746E+02 -0.13849116339E+03  0.19210412704E+03  0.12509000000E+03 0.  0.
<mgrwt>
<rscale>  2 0.44129470E+03</rscale>
<asrwt>0</asrwt>
<pdfrwt beam="1">  1       21 0.10873219E-01 0.44129470E+03</pdfrwt>
<pdfrwt beam="2">  1       21 0.96832577E-01 0.44129470E+03</pdfrwt>
<totfact> 0.57086563E+04</totfact>
</mgrwt>
</event>
<event>
 7    0  0.4709932E-002  0.4596852E+03  0.7546771E-02  0.1024873E+00
         21   -1    0    0  502  501  0.00000000000E+00  0.00000000000E+00  0.26873373851E+03  0.26873373851E+03  0.00000000000E+00 0.  1.
         21   -1    0    0  501  502 -0.00000000000E+00 -0.00000000000E+00 -0.19657975873E+03  0.19657975873E+03  0.00000000000E+00 0.  1.
      99926    2    1    2    0    0  0.00000000000E+00  0.14210854715E-13  0.72153979780E+02  0.46531349723E+03  0.45968516825E+03 0.  0.
      99925    2    3    3    0    0 -0.18805057065E+02  0.90631126016E+02 -0.28487616398E+02  0.27999250502E+03  0.26271015855E+03 0.  0.
         25    1    4    4    0    0  0.17161517246E+02  0.14208739438E+02 -0.43005402035E+01  0.12713146226E+03  0.12509000000E+03 0.  0.
         25    1    3    3    0    0  0.18805057065E+02 -0.90631126016E+02  0.10064159618E+03  0.18532099221E+03  0.12509000000E+03 0.  0.
         25    1    4    4    0    0 -0.35966574312E+02  0.76422386578E+02 -0.24187076194E+02  0.15286104276E+03  0.12509000000E+03 0.  0.
<mgrwt>
<rscale>  2 0.45968517E+03</rscale>
<asrwt>0</asrwt>
<pdfrwt beam="1">  1       21 0.39519668E-01 0.45968517E+03</pdfrwt>
<pdfrwt beam="2">  1       21 0.28908788E-01 0.45968517E+03</pdfrwt>
<totfact> 0.65319925E+04</totfact>
</mgrwt>
</event>
<event>
 7    0  0.4709932E-002  0.4535188E+03  0.7546771E-02  0.1026678E+00
         21   -1    0    0  502  501  0.00000000000E+00  0.00000000000E+00  0.15287807481E+03  0.15287807481E+03  0.00000000000E+00 0.  1.
         21   -1    0    0  501  502 -0.00000000000E+00 -0.00000000000E+00 -0.33634527981E+03  0.33634527981E+03  0.00000000000E+00 0.  1.
      99926    2    1    2    0    0  0.00000000000E+00  0.00000000000E+00 -0.18346720500E+03  0.48922335462E+03  0.45351877071E+03 0.  0.
      99925    2    3    3    0    0  0.10599494658E+03 -0.33766544667E+02 -0.10608709998E+03  0.30480454594E+03  0.26320378076E+03 0.  0.
         25    1    4    4    0    0  0.51282219624E+02 -0.53261779600E+02 -0.34202892096E+02  0.14927836127E+03  0.12509000000E+03 0.  0.
         25    1    3    3    0    0 -0.10599494658E+03  0.33766544667E+02 -0.77380105026E+02  0.18441880867E+03  0.12509000000E+03 0.  0.
         25    1    4    4    0    0  0.54712726954E+02  0.19495234932E+02 -0.71884207882E+02  0.15552618467E+03  0.12509000000E+03 0.  0.
<mgrwt>
<rscale>  2 0.45351877E+03</rscale>
<asrwt>0</asrwt>
<pdfrwt beam="1">  1       21 0.22482070E-01 0.45351877E+03</pdfrwt>
<pdfrwt beam="2">  1       21 0.49462540E-01 0.45351877E+03</pdfrwt>
<totfact> 0.66816838E+04</totfact>
</mgrwt>
</event>
<event>
 7    0  0.4709932E-002  0.4642566E+03  0.7546771E-02  0.1023554E+00
         21   -1    0    0  502  501  0.00000000000E+00  0.00000000000E+00  0.33794599933E+03  0.33794599933E+03  0.00000000000E+00 0. -1.
         21   -1    0    0  501  502 -0.00000000000E+00 -0.00000000000E+00 -0.15944422131E+03  0.15944422131E+03  0.00000000000E+00 0. -1.
      99926    2    1    2    0    0  0.00000000000E+00  0.35527136788E-14  0.17850177801E+03  0.49739022064E+03  0.46425655282E+03 0.  0.
      99925    2    3    3    0    0 -0.56685384312E+02 -0.13843415527E+02 -0.26172647791E+01  0.26967002235E+03  0.26326830028E+03 0.  0.
         25    1    4    4    0    0 -0.67016309347E+02 -0.21300239414E+02 -0.88976592601E+01  0.14377608410E+03  0.12509000000E+03 0.  0.
         25    1    3    3    0    0  0.56685384312E+02  0.13843415527E+02  0.18111904279E+03  0.22772019829E+03  0.12509000000E+03 0.  0.
         25    1    4    4    0    0  0.10330925035E+02  0.74568238862E+01  0.62803944810E+01  0.12589393826E+03  0.12509000000E+03 0.  0.
<mgrwt>
<rscale>  2 0.46425655E+03</rscale>
<asrwt>0</asrwt>
<pdfrwt beam="1">  1       21 0.49697941E-01 0.46425655E+03</pdfrwt>
<pdfrwt beam="2">  1       21 0.23447680E-01 0.46425655E+03</pdfrwt>
<totfact> 0.60857851E+04</totfact>
</mgrwt>
</event>
<event>
 7    0  0.4709932E-002  0.4545491E+03  0.7546771E-02  0.1026374E+00
         21   -1    0    0  502  501  0.00000000000E+00  0.00000000000E+00  0.61302276865E+02  0.61302276865E+02  0.00000000000E+00 0.  1.
         21   -1    0    0  501  502 -0.00000000000E+00 -0.00000000000E+00 -0.84260703516E+03  0.84260703516E+03  0.00000000000E+00 0.  1.
      99926    2    1    2    0    0  0.00000000000E+00 -0.88817841970E-15 -0.78130475829E+03  0.90390931202E+03  0.45454913819E+03 0.  0.
      99925    2    3    3    0    0 -0.86811562258E+02  0.58763531743E+01 -0.63444684312E+03  0.69228338209E+03  0.26298803303E+03 0.  0.
         25    1    4    4    0    0 -0.49279581360E+01 -0.91735223411E+01 -0.25666217380E+03  0.28571212408E+03  0.12509000000E+03 0.  0.
         25    1    3    3    0    0  0.86811562258E+02 -0.58763531743E+01 -0.14685791518E+03  0.21162592993E+03  0.12509000000E+03 0.  0.
         25    1    4    4    0    0 -0.81883604122E+02  0.15049875515E+02 -0.37778466931E+03  0.40657125802E+03  0.12509000000E+03 0.  0.
<mgrwt>
<rscale>  2 0.45454914E+03</rscale>
<asrwt>0</asrwt>
<pdfrwt beam="1">  1       21 0.90150415E-02 0.45454914E+03</pdfrwt>
<pdfrwt beam="2">  1       21 0.12391279E+00 0.45454914E+03</pdfrwt>
<totfact> 0.43217458E+04</totfact>
</mgrwt>
</event>
<event>
 7    0  0.4709932E-002  0.4498996E+03  0.7546771E-02  0.1027752E+00
         21   -1    0    0  502  501  0.00000000000E+00  0.00000000000E+00  0.52346296198E+03  0.52346296198E+03  0.00000000000E+00 0. -1.
         21   -1    0    0  501  502 -0.00000000000E+00 -0.00000000000E+00 -0.96668554824E+02  0.96668554824E+02  0.00000000000E+00 0. -1.
      99926    2    1    2    0    0  0.00000000000E+00  0.00000000000E+00  0.42679440716E+03  0.62013151680E+03  0.44989958008E+03 0.  0.
      99925    2    3    3    0    0  0.24141043653E+02 -0.71342360891E+02  0.16237986782E+03  0.31808006563E+03  0.26293570360E+03 0.  0.
         25    1    3    3    0    0 -0.24141043653E+02  0.71342360891E+02  0.26441453933E+03  0.30205145117E+03  0.12509000000E+03 0.  0.
         25    1    4    4    0    0 -0.25367965710E+02 -0.50922180384E+02  0.79747981756E+02  0.15888313577E+03  0.12509000000E+03 0.  0.
         25    1    4    4    0    0  0.49509009363E+02 -0.20420180507E+02  0.82631886069E+02  0.15919692986E+03  0.12509000000E+03 0.  0.
<mgrwt>
<rscale>  2 0.44989958E+03</rscale>
<asrwt>0</asrwt>
<pdfrwt beam="1">  1       21 0.76979846E-01 0.44989958E+03</pdfrwt>
<pdfrwt beam="2">  1       21 0.14215964E-01 0.44989958E+03</pdfrwt>
<totfact> 0.59829332E+04</totfact>
</mgrwt>
</event>
<event>
 7    0  0.4709932E-002  0.4491009E+03  0.7546771E-02  0.1027991E+00
         21   -1    0    0  502  501  0.00000000000E+00  0.00000000000E+00  0.43582733747E+02  0.43582733747E+02  0.00000000000E+00 0.  1.
         21   -1    0    0  501  502 -0.00000000000E+00 -0.00000000000E+00 -0.11569466920E+04  0.11569466920E+04  0.00000000000E+00 0.  1.
      99926    2    1    2    0    0  0.00000000000E+00  0.00000000000E+00 -0.11133639582E+04  0.12005294257E+04  0.44910087791E+03 0.  0.
      99925    2    3    3    0    0 -0.43871817794E+02  0.73340122027E+02 -0.87882267073E+03  0.92131511101E+03  0.26303752069E+03 0.  0.
         25    1    3    3    0    0  0.43871817794E+02 -0.73340122027E+02 -0.23454128747E+03  0.27921431468E+03  0.12509000000E+03 0.  0.
         25    1    4    4    0    0 -0.60778413271E+02  0.25454536815E+02 -0.46629751113E+03  0.48726053190E+03  0.12509000000E+03 0.  0.
         25    1    4    4    0    0  0.16906595477E+02  0.47885585213E+02 -0.41252515960E+03  0.43405457911E+03  0.12509000000E+03 0.  0.
<mgrwt>
<rscale>  2 0.44910088E+03</rscale>
<asrwt>0</asrwt>
<pdfrwt beam="1">  1       21 0.64092266E-02 0.44910088E+03</pdfrwt>
<pdfrwt beam="2">  1       21 0.17013919E+00 0.44910088E+03</pdfrwt>
<totfact> 0.33659546E+04</totfact>
</mgrwt>
</event>
<event>
 7    0  0.4709932E-002  0.4697752E+03  0.7546771E-02  0.1021984E+00
         21   -1    0    0  502  501  0.00000000000E+00  0.00000000000E+00  0.35332279696E+03  0.35332279696E+03  0.00000000000E+00 0. -1.
         21   -1    0    0  501  502 -0.00000000000E+00 -0.00000000000E+00 -0.15615237624E+03  0.15615237624E+03  0.00000000000E+00 0. -1.
      99926    2    1    2    0    0  0.00000000000E+00  0.00000000000E+00  0.19717042071E+03  0.50947517320E+03  0.46977524126E+03 0.  0.
      99925    2    3    3    0    0  0.93924079608E+02 -0.44481715055E+02  0.20070226273E+03  0.34680883460E+03  0.26304869091E+03 0.  0.
         25    1    3    3    0    0 -0.93924079608E+02  0.44481715055E+02 -0.35318420211E+01  0.16266633860E+03  0.12509000000E+03 0.  0.
         25    1    4    4    0    0  0.24634571135E+02 -0.11199580886E+02  0.13479211645E+03  0.18587284757E+03  0.12509000000E+03 0.  0.
         25    1    4    4    0    0  0.69289508473E+02 -0.33282134170E+02  0.65910146286E+02  0.16093598703E+03  0.12509000000E+03 0.  0.
<mgrwt>
<rscale>  2 0.46977524E+03</rscale>
<asrwt>0</asrwt>
<pdfrwt beam="1">  1       21 0.51959235E-01 0.46977524E+03</pdfrwt>
<pdfrwt beam="2">  1       21 0.22963585E-01 0.46977524E+03</pdfrwt>
<totfact> 0.57557424E+04</totfact>
</mgrwt>
</event>
<event>
 7    0  0.4709932E-002  0.4454250E+03  0.7546771E-02  0.1029095E+00
         21   -1    0    0  502  501  0.00000000000E+00  0.00000000000E+00  0.42580719868E+03  0.42580719868E+03  0.00000000000E+00 0.  1.
         21   -1    0    0  501  502 -0.00000000000E+00 -0.00000000000E+00 -0.11648664091E+03  0.11648664091E+03  0.00000000000E+00 0.  1.
      99926    2    1    2    0    0  0.35527136788E-14  0.00000000000E+00  0.30932055778E+03  0.54229383959E+03  0.44542496674E+03 0.  0.
      99925    2    3    3    0    0 -0.16849434693E+02  0.56308852395E+02  0.30080705393E+03  0.40382153855E+03  0.26293033487E+03 0.  0.
         25    1    4    4    0    0 -0.47672222741E+02  0.24496938135E+02  0.16608447856E+03  0.21471912564E+03  0.12509000000E+03 0.  0.
         25    1    3    3    0    0  0.16849434693E+02 -0.56308852395E+02  0.85135038402E+01  0.13847230104E+03  0.12509000000E+03 0.  0.
         25    1    4    4    0    0  0.30822788048E+02  0.31811914260E+02  0.13472257538E+03  0.18910241291E+03  0.12509000000E+03 0.  0.
<mgrwt>
<rscale>  2 0.44542497E+03</rscale>
<asrwt>0</asrwt>
<pdfrwt beam="1">  1       21 0.62618705E-01 0.44542497E+03</pdfrwt>
<pdfrwt beam="2">  1       21 0.17130389E-01 0.44542497E+03</pdfrwt>
<totfact> 0.67337631E+04</totfact>
</mgrwt>
</event>
<event>
 7    0  0.4709932E-002  0.4546139E+03  0.7546771E-02  0.1026355E+00
         21   -1    0    0  502  501  0.00000000000E+00  0.00000000000E+00  0.18571227960E+03  0.18571227960E+03  0.00000000000E+00 0.  1.
         21   -1    0    0  501  502 -0.00000000000E+00 -0.00000000000E+00 -0.27821771346E+03  0.27821771346E+03  0.00000000000E+00 0.  1.
      99926    2    1    2    0    0 -0.71054273576E-14  0.17763568394E-14 -0.92505433855E+02  0.46392999306E+03  0.45461388361E+03 0.  0.
      99925    2    3    3    0    0 -0.59190105076E+02  0.12127569055E+02 -0.15542223752E+03  0.31142891519E+03  0.26302347961E+03 0.  0.
         25    1    4    4    0    0 -0.28625537858E+02 -0.33080492618E+02 -0.89137708609E+02  0.15970842058E+03  0.12509000000E+03 0.  0.
         25    1    3    3    0    0  0.59190105076E+02 -0.12127569055E+02  0.62916803664E+02  0.15250107788E+03  0.12509000000E+03 0.  0.
         25    1    4    4    0    0 -0.30564567219E+02  0.45208061673E+02 -0.66284528909E+02  0.15172049460E+03  0.12509000000E+03 0.  0.
<mgrwt>
<rscale>  2 0.45461388E+03</rscale>
<asrwt>0</asrwt>
<pdfrwt beam="1">  1       21 0.27310630E-01 0.45461388E+03</pdfrwt>
<pdfrwt beam="2">  1       21 0.40914369E-01 0.45461388E+03</pdfrwt>
<totfact> 0.68098537E+04</totfact>
</mgrwt>
</event>
<event>
 7    0  0.4709932E-002  0.4549946E+03  0.7546771E-02  0.1026243E+00
         21   -1    0    0  502  501  0.00000000000E+00  0.00000000000E+00  0.71917089988E+02  0.71917089988E+02  0.00000000000E+00 0. -1.
         21   -1    0    0  501  502 -0.00000000000E+00 -0.00000000000E+00 -0.71964855487E+03  0.71964855487E+03  0.00000000000E+00 0. -1.
      99926    2    1    2    0    0  0.00000000000E+00  0.35527136788E-14 -0.64773146488E+03  0.79156564485E+03  0.45499463680E+03 0.  0.
      99925    2    3    3    0    0  0.72633180768E+02 -0.28231678985E+02 -0.55016931629E+03  0.61482151459E+03  0.26314750914E+03 0.  0.
         25    1    3    3    0    0 -0.72633180768E+02  0.28231678985E+02 -0.97562148588E+02  0.17674413027E+03  0.12509000000E+03 0.  0.
         25    1    4    4    0    0  0.19453990402E+02  0.14938262349E+02 -0.20567679377E+03  0.24197533143E+03  0.12509000000E+03 0.  0.
         25    1    4    4    0    0  0.53179190367E+02 -0.43169941333E+02 -0.34449252252E+03  0.37284618316E+03  0.12509000000E+03 0.  0.
<mgrwt>
<rscale>  2 0.45499464E+03</rscale>
<asrwt>0</asrwt>
<pdfrwt beam="1">  1       21 0.10576043E-01 0.45499464E+03</pdfrwt>
<pdfrwt beam="2">  1       21 0.10583067E+00 0.45499464E+03</pdfrwt>
<totfact> 0.48177517E+04</totfact>
</mgrwt>
</event>
<event>
 7    0  0.4709932E-002  0.4613130E+03  0.7546771E-02  0.1024401E+00
         21   -1    0    0  502  501  0.00000000000E+00  0.00000000000E+00  0.17122191192E+03  0.17122191192E+03  0.00000000000E+00 0. -1.
         21   -1    0    0  501  502 -0.00000000000E+00 -0.00000000000E+00 -0.31072198143E+03  0.31072198143E+03  0.00000000000E+00 0. -1.
      99926    2    1    2    0    0  0.35527136788E-14 -0.17763568394E-14 -0.13950006951E+03  0.48194389335E+03  0.46131295987E+03 0.  0.
      99925    2    3    3    0    0 -0.26547313609E+02  0.12902967123E+02  0.33140272728E+02  0.26671507956E+03  0.26299697634E+03 0.  0.
         25    1    4    4    0    0 -0.38374844948E+02  0.38488414129E+02  0.19232042634E+02  0.13773658305E+03  0.12509000000E+03 0.  0.
         25    1    3    3    0    0  0.26547313609E+02 -0.12902967123E+02 -0.17264034224E+03  0.21522881380E+03  0.12509000000E+03 0.  0.
         25    1    4    4    0    0  0.11827531339E+02 -0.25585447006E+02  0.13908230093E+02  0.12897849650E+03  0.12509000000E+03 0.  0.
<mgrwt>
<rscale>  2 0.46131296E+03</rscale>
<asrwt>0</asrwt>
<pdfrwt beam="1">  1       21 0.25179693E-01 0.46131296E+03</pdfrwt>
<pdfrwt beam="2">  1       21 0.45694408E-01 0.46131296E+03</pdfrwt>
<totfact> 0.63325906E+04</totfact>
</mgrwt>
</event>
<event>
 7    0  0.4709932E-002  0.4471627E+03  0.7546771E-02  0.1028572E+00
         21   -1    0    0  502  501  0.00000000000E+00  0.00000000000E+00  0.81409934852E+02  0.81409934852E+02  0.00000000000E+00 0.  1.
         21   -1    0    0  501  502 -0.00000000000E+00 -0.00000000000E+00 -0.61403590013E+03  0.61403590013E+03  0.00000000000E+00 0.  1.
      99926    2    1    2    0    0 -0.71054273576E-14 -0.35527136788E-14 -0.53262596528E+03  0.69544583499E+03  0.44716271144E+03 0.  0.
      99925    2    3    3    0    0 -0.56632812303E+02 -0.30461682219E+02 -0.46805170730E+03  0.54067977796E+03  0.26292020097E+03 0.  0.
         25    1    4    4    0    0 -0.43317099730E+02 -0.48875069513E+02 -0.28202624574E+03  0.31535924742E+03  0.12509000000E+03 0.  0.
         25    1    4    4    0    0 -0.13315712572E+02  0.18413387295E+02 -0.18602546156E+03  0.22532053054E+03  0.12509000000E+03 0.  0.
         25    1    3    3    0    0  0.56632812303E+02  0.30461682219E+02 -0.64574257979E+02  0.15476605702E+03  0.12509000000E+03 0.  0.
<mgrwt>
<rscale>  2 0.44716271E+03</rscale>
<asrwt>0</asrwt>
<pdfrwt beam="1">  1       21 0.11972049E-01 0.44716271E+03</pdfrwt>
<pdfrwt beam="2">  1       21 0.90299397E-01 0.44716271E+03</pdfrwt>
<totfact> 0.56559892E+04</totfact>
</mgrwt>
</event>
<event>
 7    0  0.4709932E-002  0.4523053E+03  0.7546771E-02  0.1027037E+00
         21   -1    0    0  502  501  0.00000000000E+00  0.00000000000E+00  0.55163741060E+03  0.55163741060E+03  0.00000000000E+00 0.  1.
         21   -1    0    0  501  502 -0.00000000000E+00 -0.00000000000E+00 -0.92714945158E+02  0.92714945158E+02  0.00000000000E+00 0.  1.
      99926    2    1    2    0    0  0.00000000000E+00  0.71054273576E-14  0.45892246545E+03  0.64435235576E+03  0.45230534939E+03 0.  0.
      99925    2    3    3    0    0 -0.55045127377E+02  0.50259160579E+02  0.17308100044E+03  0.32355834010E+03  0.26301524188E+03 0.  0.
         25    1    4    4    0    0 -0.23132582002E+02  0.34565335644E+02  0.13351348197E+03  0.18762525615E+03  0.12509000000E+03 0.  0.
         25    1    4    4    0    0 -0.31912545375E+02  0.15693824935E+02  0.39567518475E+02  0.13593308395E+03  0.12509000000E+03 0.  0.
         25    1    3    3    0    0  0.55045127377E+02 -0.50259160579E+02  0.28584146500E+03  0.32079401566E+03  0.12509000000E+03 0.  0.
<mgrwt>
<rscale>  2 0.45230535E+03</rscale>
<asrwt>0</asrwt>
<pdfrwt beam="1">  1       21 0.81123147E-01 0.45230535E+03</pdfrwt>
<pdfrwt beam="2">  1       21 0.13634551E-01 0.45230535E+03</pdfrwt>
<totfact> 0.57235259E+04</totfact>
</mgrwt>
</event>
<event>
 7    0  0.4709932E-002  0.4456951E+03  0.7546771E-02  0.1029014E+00
         21   -1    0    0  502  501  0.00000000000E+00  0.00000000000E+00  0.27482906330E+03  0.27482906330E+03  0.00000000000E+00 0.  1.
         21   -1    0    0  501  502 -0.00000000000E+00 -0.00000000000E+00 -0.18069792351E+03  0.18069792351E+03  0.00000000000E+00 0.  1.
      99926    2    1    2    0    0  0.66613381478E-15 -0.14210854715E-13  0.94131139781E+02  0.45552698681E+03  0.44569514720E+03 0.  0.
      99925    2    3    3    0    0  0.14793534647E+01  0.69892731442E+02 -0.19154260719E+02  0.27285714129E+03  0.26305313428E+03 0.  0.
         25    1    4    4    0    0 -0.19280230426E+02 -0.16787152873E+01 -0.86957690331E+01  0.12687659307E+03  0.12509000000E+03 0.  0.
         25    1    4    4    0    0  0.20759583891E+02  0.71571446729E+02 -0.10458491686E+02  0.14598054822E+03  0.12509000000E+03 0.  0.
         25    1    3    3    0    0 -0.14793534647E+01 -0.69892731442E+02  0.11328540050E+03  0.18266984552E+03  0.12509000000E+03 0.  0.
<mgrwt>
<rscale>  2 0.44569515E+03</rscale>
<asrwt>0</asrwt>
<pdfrwt beam="1">  1       21 0.40416039E-01 0.44569515E+03</pdfrwt>
<pdfrwt beam="2">  1       21 0.26573224E-01 0.44569515E+03</pdfrwt>
<totfact> 0.73828205E+04</totfact>
</mgrwt>
</event>
<event>
 7    0  0.4709932E-002  0.4527471E+03  0.7546771E-02  0.1026906E+00
         21   -1    0    0  502  501  0.00000000000E+00  0.00000000000E+00  0.11870645026E+04  0.11870645026E+04  0.00000000000E+00 0. -1.
         21   -1    0    0  501  502 -0.00000000000E+00 -0.00000000000E+00 -0.43169507999E+02  0.43169507999E+02  0.00000000000E+00 0. -1.
      99926    2    1    2    0    0  0.00000000000E+00  0.00000000000E+00  0.11438949946E+04  0.12302340106E+04  0.45274712828E+03 0.  0.
      99925    2    3    3    0    0 -0.62764509061E+02 -0.90845677956E+02  0.75239888541E+03  0.80466494169E+03  0.26303852346E+03 0.  0.
         25    1    4    4    0    0 -0.40583151147E+02 -0.50234509053E+02  0.49679605950E+03  0.51635678643E+03  0.12509000000E+03 0.  0.
         25    1    4    4    0    0 -0.22181357914E+02 -0.40611168903E+02  0.25560282591E+03  0.28830815526E+03  0.12509000000E+03 0.  0.
         25    1    3    3    0    0  0.62764509061E+02  0.90845677956E+02  0.39149610924E+03  0.42556906895E+03  0.12509000000E+03 0.  0.
<mgrwt>
<rscale>  2 0.45274713E+03</rscale>
<asrwt>0</asrwt>
<pdfrwt beam="1">  1       21 0.17456829E+00 0.45274713E+03</pdfrwt>
<pdfrwt beam="2">  1       21 0.63484579E-02 0.45274713E+03</pdfrwt>
<totfact> 0.31763559E+04</totfact>
</mgrwt>
</event>
<event>
 7    0  0.4709932E-002  0.4251343E+03  0.7546771E-02  0.1035408E+00
         21   -1    0    0  502  501  0.00000000000E+00  0.00000000000E+00  0.13363453402E+04  0.13363453402E+04  0.00000000000E+00 0.  1.
         21   -1    0    0  501  502 -0.00000000000E+00 -0.00000000000E+00 -0.33812207928E+02  0.33812207928E+02  0.00000000000E+00 0.  1.
      99926    2    1    2    0    0  0.71054273576E-14  0.00000000000E+00  0.13025331323E+04  0.13701575482E+04  0.42513426824E+03 0.  0.
      99925    2    3    3    0    0  0.39146716080E+02 -0.56032321767E+02  0.69789543865E+03  0.74894394951E+03  0.26303404676E+03 0.  0.
         25    1    3    3    0    0 -0.39146716080E+02  0.56032321767E+02  0.60463769365E+03  0.62121359865E+03  0.12509000000E+03 0.  0.
         25    1    4    4    0    0 -0.16753442781E+02 -0.25047662770E+02  0.28202062509E+03  0.30998581311E+03  0.12509000000E+03 0.  0.
         25    1    4    4    0    0  0.55900158861E+02 -0.30984658997E+02  0.41587481356E+03  0.43895813640E+03  0.12509000000E+03 0.  0.
<mgrwt>
<rscale>  2 0.42513427E+03</rscale>
<asrwt>0</asrwt>
<pdfrwt beam="1">  1       21 0.19652134E+00 0.42513427E+03</pdfrwt>
<pdfrwt beam="2">  1       21 0.49723844E-02 0.42513427E+03</pdfrwt>
<totfact> 0.34472898E+04</totfact>
</mgrwt>
</event>
<event>
 7    0  0.4709932E-002  0.4532640E+03  0.7546771E-02  0.1026753E+00
         21   -1    0    0  502  501  0.00000000000E+00  0.00000000000E+00  0.90997588732E+02  0.90997588732E+02  0.00000000000E+00 0.  1.
         21   -1    0    0  501  502 -0.00000000000E+00 -0.00000000000E+00 -0.56443329725E+03  0.56443329725E+03  0.00000000000E+00 0.  1.
      99926    2    1    2    0    0  0.71054273576E-14  0.00000000000E+00 -0.47343570852E+03  0.65543088598E+03  0.45326402482E+03 0.  0.
      99925    2    3    3    0    0 -0.32432218698E+02  0.41040334566E+02 -0.44062906709E+03  0.51593199103E+03  0.26324073912E+03 0.  0.
         25    1    4    4    0    0  0.96486515663E+01 -0.60182132277E+01 -0.24472743912E+03  0.27507879403E+03  0.12509000000E+03 0.  0.
         25    1    4    4    0    0 -0.42080870264E+02  0.47058547794E+02 -0.19590162797E+03  0.24085319699E+03  0.12509000000E+03 0.  0.
         25    1    3    3    0    0  0.32432218698E+02 -0.41040334566E+02 -0.32806641427E+02  0.13949889495E+03  0.12509000000E+03 0.  0.
<mgrwt>
<rscale>  2 0.45326402E+03</rscale>
<asrwt>0</asrwt>
<pdfrwt beam="1">  1       21 0.13381998E-01 0.45326402E+03</pdfrwt>
<pdfrwt beam="2">  1       21 0.83004898E-01 0.45326402E+03</pdfrwt>
<totfact> 0.56154650E+04</totfact>
</mgrwt>
</event>
<event>
 7    0  0.4709932E-002  0.4577750E+03  0.7546771E-02  0.1025429E+00
         21   -1    0    0  502  501  0.00000000000E+00  0.00000000000E+00  0.11430492577E+03  0.11430492577E+03  0.00000000000E+00 0. -1.
         21   -1    0    0  501  502 -0.00000000000E+00 -0.00000000000E+00 -0.45833094766E+03  0.45833094766E+03  0.00000000000E+00 0. -1.
      99926    2    1    2    0    0  0.00000000000E+00 -0.14210854715E-13 -0.34402602189E+03  0.57263587342E+03  0.45777498817E+03 0.  0.
      99925    2    3    3    0    0  0.32729726998E+02  0.89588555484E+02 -0.13375530146E+03  0.31003612423E+03  0.26293454197E+03 0.  0.
         25    1    4    4    0    0  0.31423881752E+02  0.68427543341E+02 -0.10528735393E+03  0.18000756659E+03  0.12509000000E+03 0.  0.
         25    1    3    3    0    0 -0.32729726998E+02 -0.89588555484E+02 -0.21027072043E+03  0.26259974919E+03  0.12509000000E+03 0.  0.
         25    1    4    4    0    0  0.13058452461E+01  0.21161012143E+02 -0.28467947533E+02  0.13002855765E+03  0.12509000000E+03 0.  0.
<mgrwt>
<rscale>  2 0.45777499E+03</rscale>
<asrwt>0</asrwt>
<pdfrwt beam="1">  1       21 0.16809548E-01 0.45777499E+03</pdfrwt>
<pdfrwt beam="2">  1       21 0.67401608E-01 0.45777499E+03</pdfrwt>
<totfact> 0.59087769E+04</totfact>
</mgrwt>
</event>
<event>
 7    0  0.4709932E-002  0.4604848E+03  0.7546771E-02  0.1024641E+00
         21   -1    0    0  502  501  0.00000000000E+00  0.00000000000E+00  0.42619817251E+02  0.42619817251E+02  0.00000000000E+00 0. -1.
         21   -1    0    0  501  502 -0.00000000000E+00 -0.00000000000E+00 -0.12438244140E+04  0.12438244140E+04  0.00000000000E+00 0. -1.
      99926    2    1    2    0    0  0.00000000000E+00  0.00000000000E+00 -0.12012045967E+04  0.12864442312E+04  0.46048482805E+03 0.  0.
      99925    2    3    3    0    0 -0.41269856732E+02  0.11010006986E+03 -0.71747175054E+03  0.77315074692E+03  0.26300406495E+03 0.  0.
         25    1    4    4    0    0  0.12464210003E+02  0.77712505334E+02 -0.34923813066E+03  0.37922205899E+03  0.12509000000E+03 0.  0.
         25    1    3    3    0    0  0.41269856732E+02 -0.11010006986E+03 -0.48373284618E+03  0.51329348431E+03  0.12509000000E+03 0.  0.
         25    1    4    4    0    0 -0.53734066735E+02  0.32387564523E+02 -0.36823361989E+03  0.39392868794E+03  0.12509000000E+03 0.  0.
<mgrwt>
<rscale>  2 0.46048483E+03</rscale>
<asrwt>0</asrwt>
<pdfrwt beam="1">  1       21 0.62676191E-02 0.46048483E+03</pdfrwt>
<pdfrwt beam="2">  1       21 0.18291539E+00 0.46048483E+03</pdfrwt>
<totfact> 0.28284416E+04</totfact>
</mgrwt>
</event>
<event>
 7    0  0.4709932E-002  0.4600591E+03  0.7546771E-02  0.1024764E+00
         21   -1    0    0  502  501  0.00000000000E+00  0.00000000000E+00  0.62903959094E+02  0.62903959094E+02  0.00000000000E+00 0. -1.
         21   -1    0    0  501  502 -0.00000000000E+00 -0.00000000000E+00 -0.84118063690E+03  0.84118063690E+03  0.00000000000E+00 0. -1.
      99926    2    1    2    0    0  0.00000000000E+00 -0.14210854715E-13 -0.77827667780E+03  0.90408459599E+03  0.46005909348E+03 0.  0.
      99925    2    3    3    0    0 -0.55100611025E+02  0.10372648214E+03 -0.50787795158E+03  0.58383744194E+03  0.26292752705E+03 0.  0.
         25    1    3    3    0    0  0.55100611025E+02 -0.10372648214E+03 -0.27039872622E+03  0.32024715405E+03  0.12509000000E+03 0.  0.
         25    1    4    4    0    0 -0.33764415186E+02  0.99499336638E+01 -0.24111096348E+03  0.27389969282E+03  0.12509000000E+03 0.  0.
         25    1    4    4    0    0 -0.21336195839E+02  0.93776548473E+02 -0.26676698810E+03  0.30993774913E+03  0.12509000000E+03 0.  0.
<mgrwt>
<rscale>  2 0.46005909E+03</rscale>
<asrwt>0</asrwt>
<pdfrwt beam="1">  1       21 0.92505827E-02 0.46005909E+03</pdfrwt>
<pdfrwt beam="2">  1       21 0.12370303E+00 0.46005909E+03</pdfrwt>
<totfact> 0.41393535E+04</totfact>
</mgrwt>
</event>
<event>
 7    0  0.4709932E-002  0.4464380E+03  0.7546771E-02  0.1028790E+00
         21   -1    0    0  502  501  0.00000000000E+00  0.00000000000E+00  0.53692583776E+02  0.53692583776E+02  0.00000000000E+00 0. -1.
         21   -1    0    0  501  502 -0.00000000000E+00 -0.00000000000E+00 -0.92800025897E+03  0.92800025897E+03  0.00000000000E+00 0. -1.
      99926    2    1    2    0    0  0.00000000000E+00  0.00000000000E+00 -0.87430767519E+03  0.98169284274E+03  0.44643804340E+03 0.  0.
      99925    2    3    3    0    0  0.97769108972E+02 -0.29197620485E+02 -0.50086196831E+03  0.57485073111E+03  0.26301967996E+03 0.  0.
         25    1    4    4    0    0  0.75683877565E+02 -0.29969156786E+02 -0.32777883764E+03  0.36015645793E+03  0.12509000000E+03 0.  0.
         25    1    4    4    0    0  0.22085231407E+02  0.77153630122E+00 -0.17308313067E+03  0.21469427318E+03  0.12509000000E+03 0.  0.
         25    1    3    3    0    0 -0.97769108972E+02  0.29197620485E+02 -0.37344570688E+03  0.40684211163E+03  0.12509000000E+03 0.  0.
<mgrwt>
<rscale>  2 0.44643804E+03</rscale>
<asrwt>0</asrwt>
<pdfrwt beam="1">  1       21 0.78959675E-02 0.44643804E+03</pdfrwt>
<pdfrwt beam="2">  1       21 0.13647064E+00 0.44643804E+03</pdfrwt>
<totfact> 0.42668052E+04</totfact>
</mgrwt>
</event>
<event>
 7    0  0.4709932E-002  0.4568783E+03  0.7546771E-02  0.1025691E+00
         21   -1    0    0  502  501  0.00000000000E+00  0.00000000000E+00  0.21578236222E+03  0.21578236222E+03  0.00000000000E+00 0.  1.
         21   -1    0    0  501  502 -0.00000000000E+00 -0.00000000000E+00 -0.24183831048E+03  0.24183831048E+03  0.00000000000E+00 0.  1.
      99926    2    1    2    0    0  0.00000000000E+00  0.88817841970E-15 -0.26055948259E+02  0.45762067270E+03  0.45687828537E+03 0.  0.
      99925    2    3    3    0    0 -0.56217390573E+02 -0.56138851704E+01 -0.11655410852E+03  0.29321466362E+03  0.26305525663E+03 0.  0.
         25    1    4    4    0    0  0.44469543031E+00 -0.31797182141E+02 -0.61405889237E+02  0.14293162659E+03  0.12509000000E+03 0.  0.
         25    1    4    4    0    0 -0.56662086004E+02  0.26183296971E+02 -0.55148219282E+02  0.15028303704E+03  0.12509000000E+03 0.  0.
         25    1    3    3    0    0  0.56217390573E+02  0.56138851704E+01  0.90498160260E+02  0.16440600908E+03  0.12509000000E+03 0.  0.
<mgrwt>
<rscale>  2 0.45687829E+03</rscale>
<asrwt>0</asrwt>
<pdfrwt beam="1">  1       21 0.31732701E-01 0.45687829E+03</pdfrwt>
<pdfrwt beam="2">  1       21 0.35564457E-01 0.45687829E+03</pdfrwt>
<totfact> 0.67339406E+04</totfact>
</mgrwt>
</event>
<event>
 7    0  0.4709932E-002  0.4493048E+03  0.7546771E-02  0.1027930E+00
         21   -1    0    0  502  501  0.00000000000E+00  0.00000000000E+00  0.26656015994E+03  0.26656015994E+03  0.00000000000E+00 0.  1.
         21   -1    0    0  501  502 -0.00000000000E+00 -0.00000000000E+00 -0.18933324867E+03  0.18933324867E+03  0.00000000000E+00 0.  1.
      99926    2    1    2    0    0 -0.35527136788E-14 -0.14210854715E-13  0.77226911266E+02  0.45589340861E+03  0.44930480099E+03 0.  0.
      99925    2    3    3    0    0  0.18265157121E+02 -0.86432087281E+02 -0.13674396768E+02  0.27780725649E+03  0.26303186300E+03 0.  0.
         25    1    4    4    0    0  0.34471191490E+02 -0.10767678782E+02 -0.13933350007E+01  0.13020620351E+03  0.12509000000E+03 0.  0.
         25    1    4    4    0    0 -0.16206034369E+02 -0.75664408498E+02 -0.12281061768E+02  0.14760105298E+03  0.12509000000E+03 0.  0.
         25    1    3    3    0    0 -0.18265157121E+02  0.86432087281E+02  0.90901308034E+02  0.17808615212E+03  0.12509000000E+03 0.  0.
<mgrwt>
<rscale>  2 0.44930480E+03</rscale>
<asrwt>0</asrwt>
<pdfrwt beam="1">  1       21 0.39200024E-01 0.44930480E+03</pdfrwt>
<pdfrwt beam="2">  1       21 0.27843125E-01 0.44930480E+03</pdfrwt>
<totfact> 0.71681318E+04</totfact>
</mgrwt>
</event>
<event>
 7    0  0.4709932E-002  0.4560611E+03  0.7546771E-02  0.1025930E+00
         21   -1    0    0  502  501  0.00000000000E+00  0.00000000000E+00  0.47501445574E+03  0.47501445574E+03  0.00000000000E+00 0.  1.
         21   -1    0    0  501  502 -0.00000000000E+00 -0.00000000000E+00 -0.10946598654E+03  0.10946598654E+03  0.00000000000E+00 0.  1.
      99926    2    1    2    0    0  0.00000000000E+00  0.00000000000E+00  0.36554846920E+03  0.58448044228E+03  0.45606107493E+03 0.  0.
      99925    2    3    3    0    0  0.84657625445E+02 -0.70323120697E+02  0.26862951256E+03  0.39172918519E+03  0.26301651025E+03 0.  0.
         25    1    4    4    0    0  0.19156054020E+02 -0.40220310560E+02  0.17490772967E+03  0.21960157054E+03  0.12509000000E+03 0.  0.
         25    1    3    3    0    0 -0.84657625445E+02  0.70323120697E+02  0.96918956642E+02  0.19275125708E+03  0.12509000000E+03 0.  0.
         25    1    4    4    0    0  0.65501571425E+02 -0.30102810137E+02  0.93721782888E+02  0.17212761465E+03  0.12509000000E+03 0.  0.
<mgrwt>
<rscale>  2 0.45606107E+03</rscale>
<asrwt>0</asrwt>
<pdfrwt beam="1">  1       21 0.69855066E-01 0.45606107E+03</pdfrwt>
<pdfrwt beam="2">  1       21 0.16097939E-01 0.45606107E+03</pdfrwt>
<totfact> 0.59146195E+04</totfact>
</mgrwt>
</event>
<event>
 7    0  0.4709932E-002  0.4537567E+03  0.7546771E-02  0.1026608E+00
         21   -1    0    0  502  501  0.00000000000E+00  0.00000000000E+00  0.38009743459E+02  0.38009743459E+02  0.00000000000E+00 0.  1.
         21   -1    0    0  501  502 -0.00000000000E+00 -0.00000000000E+00 -0.13542261726E+04  0.13542261726E+04  0.00000000000E+00 0.  1.
      99926    2    1    2    0    0  0.00000000000E+00  0.00000000000E+00 -0.13162164292E+04  0.13922359161E+04  0.45375671635E+03 0.  0.
      99925    2    3    3    0    0  0.20849809737E+02 -0.10228525947E+03 -0.95364890336E+03  0.99474414543E+03  0.26300702483E+03 0.  0.
         25    1    3    3    0    0 -0.20849809737E+02  0.10228525947E+03 -0.36256752581E+03  0.39749177066E+03  0.12509000000E+03 0.  0.
         25    1    4    4    0    0  0.33162380540E+02 -0.80125225167E+02 -0.59121216600E+03  0.61049089143E+03  0.12509000000E+03 0.  0.
         25    1    4    4    0    0 -0.12312570803E+02 -0.22160034305E+02 -0.36243673736E+03  0.38425325400E+03  0.12509000000E+03 0.  0.
<mgrwt>
<rscale>  2 0.45375672E+03</rscale>
<asrwt>0</asrwt>
<pdfrwt beam="1">  1       21 0.55896681E-02 0.45375672E+03</pdfrwt>
<pdfrwt beam="2">  1       21 0.19915091E+00 0.45375672E+03</pdfrwt>
<totfact> 0.26797623E+04</totfact>
</mgrwt>
</event>
<event>
 7    0  0.4709932E-002  0.4471315E+03  0.7546771E-02  0.1028581E+00
         21   -1    0    0  502  501  0.00000000000E+00  0.00000000000E+00  0.43276074908E+03  0.43276074908E+03  0.00000000000E+00 0.  1.
         21   -1    0    0  501  502 -0.00000000000E+00 -0.00000000000E+00 -0.11549485582E+03  0.11549485582E+03  0.00000000000E+00 0.  1.
      99926    2    1    2    0    0  0.00000000000E+00  0.00000000000E+00  0.31726589326E+03  0.54825560490E+03  0.44713148097E+03 0.  0.
      99925    2    3    3    0    0 -0.61640908788E+02 -0.53482218570E+02  0.11917166002E+03  0.30016533367E+03  0.26312999381E+03 0.  0.
         25    1    3    3    0    0  0.61640908788E+02  0.53482218570E+02  0.19809423323E+03  0.24809027123E+03  0.12509000000E+03 0.  0.
         25    1    4    4    0    0 -0.67387308277E+02 -0.48310528298E+02  0.68781971610E+02  0.16508611141E+03  0.12509000000E+03 0.  0.
         25    1    4    4    0    0  0.57463994890E+01 -0.51716902727E+01  0.50389688414E+02  0.13507922226E+03  0.12509000000E+03 0.  0.
<mgrwt>
<rscale>  2 0.44713148E+03</rscale>
<asrwt>0</asrwt>
<pdfrwt beam="1">  1       21 0.63641286E-01 0.44713148E+03</pdfrwt>
<pdfrwt beam="2">  1       21 0.16984538E-01 0.44713148E+03</pdfrwt>
<totfact> 0.65995648E+04</totfact>
</mgrwt>
</event>
<event>
 7    0  0.4709932E-002  0.4621962E+03  0.7546771E-02  0.1024146E+00
         21   -1    0    0  502  501  0.00000000000E+00  0.00000000000E+00  0.63311464359E+03  0.63311464359E+03  0.00000000000E+00 0. -1.
         21   -1    0    0  501  502 -0.00000000000E+00 -0.00000000000E+00 -0.84354919297E+02  0.84354919297E+02  0.00000000000E+00 0. -1.
      99926    2    1    2    0    0 -0.71054273576E-14  0.00000000000E+00  0.54875972429E+03  0.71746956288E+03  0.46219621230E+03 0.  0.
      99925    2    3    3    0    0  0.53945402868E+02 -0.87801308650E+02  0.24819476257E+03  0.37599338421E+03  0.26296617369E+03 0.  0.
         25    1    4    4    0    0  0.22197922624E+02 -0.25694873536E+02  0.69786957862E+02  0.14720972075E+03  0.12509000000E+03 0.  0.
         25    1    3    3    0    0 -0.53945402868E+02  0.87801308650E+02  0.30056496172E+03  0.34147617868E+03  0.12509000000E+03 0.  0.
         25    1    4    4    0    0  0.31747480244E+02 -0.62106435114E+02  0.17840780471E+03  0.22878366346E+03  0.12509000000E+03 0.  0.
<mgrwt>
<rscale>  2 0.46219621E+03</rscale>
<asrwt>0</asrwt>
<pdfrwt beam="1">  1       21 0.93105092E-01 0.46219621E+03</pdfrwt>
<pdfrwt beam="2">  1       21 0.12405136E-01 0.46219621E+03</pdfrwt>
<totfact> 0.49124334E+04</totfact>
</mgrwt>
</event>
<event>
 7    0  0.4709932E-002  0.4580015E+03  0.7546771E-02  0.1025362E+00
         21   -1    0    0  502  501  0.00000000000E+00  0.00000000000E+00  0.54702627954E+02  0.54702627954E+02  0.00000000000E+00 0.  1.
         21   -1    0    0  501  502 -0.00000000000E+00 -0.00000000000E+00 -0.95866214393E+03  0.95866214393E+03  0.00000000000E+00 0.  1.
      99926    2    1    2    0    0  0.00000000000E+00  0.00000000000E+00 -0.90395951597E+03  0.10133647719E+04  0.45800147857E+03 0.  0.
      99925    2    3    3    0    0 -0.42934955252E+02 -0.37648698076E+02 -0.79057224329E+03  0.83513734258E+03  0.26303816122E+03 0.  0.
         25    1    4    4    0    0 -0.91144234850E+01 -0.28471789628E+01 -0.27281866954E+03  0.30028105783E+03  0.12509000000E+03 0.  0.
         25    1    3    3    0    0  0.42934955252E+02  0.37648698076E+02 -0.11338727269E+03  0.17822742930E+03  0.12509000000E+03 0.  0.
         25    1    4    4    0    0 -0.33820531767E+02 -0.34801519114E+02 -0.51775357375E+03  0.53485628474E+03  0.12509000000E+03 0.  0.
<mgrwt>
<rscale>  2 0.45800148E+03</rscale>
<asrwt>0</asrwt>
<pdfrwt beam="1">  1       21 0.80445049E-02 0.45800148E+03</pdfrwt>
<pdfrwt beam="2">  1       21 0.14097971E+00 0.45800148E+03</pdfrwt>
<totfact> 0.37758212E+04</totfact>
</mgrwt>
</event>
<event>
 7    0  0.4709932E-002  0.4611920E+03  0.7546771E-02  0.1024436E+00
         21   -1    0    0  502  501  0.00000000000E+00  0.00000000000E+00  0.23255832493E+03  0.23255832493E+03  0.00000000000E+00 0. -1.
         21   -1    0    0  501  502 -0.00000000000E+00 -0.00000000000E+00 -0.22865024351E+03  0.22865024351E+03  0.00000000000E+00 0. -1.
      99926    2    1    2    0    0 -0.17763568394E-14  0.14210854715E-13  0.39080814209E+01  0.46120856845E+03  0.46119201046E+03 0.  0.
      99925    2    3    3    0    0  0.14414483341E+02 -0.85887971288E+02  0.83363420748E+02  0.28932145436E+03  0.26300745824E+03 0.  0.
         25    1    3    3    0    0 -0.14414483341E+02  0.85887971288E+02 -0.79455339327E+02  0.17188711409E+03  0.12509000000E+03 0.  0.
         25    1    4    4    0    0 -0.18557185775E+02 -0.75450002749E+02  0.42987731494E+02  0.15340314605E+03  0.12509000000E+03 0.  0.
         25    1    4    4    0    0  0.32971669116E+02 -0.10437968540E+02  0.40375689254E+02  0.13591830831E+03  0.12509000000E+03 0.  0.
<mgrwt>
<rscale>  2 0.46119201E+03</rscale>
<asrwt>0</asrwt>
<pdfrwt beam="1">  1       21 0.34199754E-01 0.46119201E+03</pdfrwt>
<pdfrwt beam="2">  1       21 0.33625036E-01 0.46119201E+03</pdfrwt>
<totfact> 0.64830626E+04</totfact>
</mgrwt>
</event>
<event>
 7    0  0.4709932E-002  0.4539207E+03  0.7546771E-02  0.1026559E+00
         21   -1    0    0  502  501  0.00000000000E+00  0.00000000000E+00  0.29879694048E+03  0.29879694048E+03  0.00000000000E+00 0.  1.
         21   -1    0    0  501  502 -0.00000000000E+00 -0.00000000000E+00 -0.17239468078E+03  0.17239468078E+03  0.00000000000E+00 0.  1.
      99926    2    1    2    0    0  0.00000000000E+00 -0.35527136788E-14  0.12640225970E+03  0.47119162126E+03  0.45392071190E+03 0.  0.
      99925    2    3    3    0    0  0.52058115836E+02 -0.63162583461E+01  0.18291145413E+03  0.32425374426E+03  0.26255275292E+03 0.  0.
         25    1    4    4    0    0  0.28199255484E+01  0.29529547016E+02  0.90992417336E+02  0.15750261661E+03  0.12509000000E+03 0.  0.
         25    1    3    3    0    0 -0.52058115836E+02  0.63162583461E+01 -0.56509194431E+02  0.14693787701E+03  0.12509000000E+03 0.  0.
         25    1    4    4    0    0  0.49238190288E+02 -0.35845805362E+02  0.91919036795E+02  0.16675112764E+03  0.12509000000E+03 0.  0.
<mgrwt>
<rscale>  2 0.45392071E+03</rscale>
<asrwt>0</asrwt>
<pdfrwt beam="1">  1       21 0.43940727E-01 0.45392071E+03</pdfrwt>
<pdfrwt beam="2">  1       21 0.25352159E-01 0.45392071E+03</pdfrwt>
<totfact> 0.67926997E+04</totfact>
</mgrwt>
</event>
<event>
 7    0  0.4709932E-002  0.4531565E+03  0.7546771E-02  0.1026785E+00
         21   -1    0    0  502  501  0.00000000000E+00  0.00000000000E+00  0.22461309913E+03  0.22461309913E+03  0.00000000000E+00 0.  1.
         21   -1    0    0  501  502 -0.00000000000E+00 -0.00000000000E+00 -0.22856063877E+03  0.22856063877E+03  0.00000000000E+00 0.  1.
      99926    2    1    2    0    0 -0.14210854715E-13  0.00000000000E+00 -0.39475396403E+01  0.45317373790E+03  0.45315654431E+03 0.  0.
      99925    2    3    3    0    0  0.10307777785E+03  0.41630155925E+02 -0.10534776760E+02  0.28569538718E+03  0.26296915135E+03 0.  0.
         25    1    4    4    0    0  0.25413811662E+02 -0.11455655681E+02 -0.15553173812E+02  0.12909881171E+03  0.12509000000E+03 0.  0.
         25    1    3    3    0    0 -0.10307777785E+03 -0.41630155925E+02  0.65872371197E+01  0.16747835072E+03  0.12509000000E+03 0.  0.
         25    1    4    4    0    0  0.77663966185E+02  0.53085811606E+02  0.50183970525E+01  0.15659657546E+03  0.12509000000E+03 0.  0.
<mgrwt>
<rscale>  2 0.45315654E+03</rscale>
<asrwt>0</asrwt>
<pdfrwt beam="1">  1       21 0.33031338E-01 0.45315654E+03</pdfrwt>
<pdfrwt beam="2">  1       21 0.33611858E-01 0.45315654E+03</pdfrwt>
<totfact> 0.69699358E+04</totfact>
</mgrwt>
</event>
<event>
 7    0  0.4709932E-002  0.4404434E+03  0.7546771E-02  0.1030611E+00
         21   -1    0    0  502  501  0.00000000000E+00  0.00000000000E+00  0.21290689577E+03  0.21290689577E+03  0.00000000000E+00 0. -1.
         21   -1    0    0  501  502 -0.00000000000E+00 -0.00000000000E+00 -0.22778783973E+03  0.22778783973E+03  0.00000000000E+00 0. -1.
      99926    2    1    2    0    0 -0.71054273576E-14 -0.17763568394E-14 -0.14880943962E+02  0.44069473551E+03  0.44044342135E+03 0.  0.
      99925    2    3    3    0    0  0.43919348543E+02 -0.10655200984E+02  0.78536093417E+02  0.27816260497E+03  0.26299063548E+03 0.  0.
         25    1    3    3    0    0 -0.43919348543E+02  0.10655200984E+02 -0.93417037379E+02  0.16253213054E+03  0.12509000000E+03 0.  0.
         25    1    4    4    0    0  0.42878255786E+02 -0.28474684560E+02  0.13187192375E+02  0.13590718385E+03  0.12509000000E+03 0.  0.
         25    1    4    4    0    0  0.10410927574E+01  0.17819483576E+02  0.65348901042E+02  0.14225542111E+03  0.12509000000E+03 0.  0.
<mgrwt>
<rscale>  2 0.44044342E+03</rscale>
<asrwt>0</asrwt>
<pdfrwt beam="1">  1       21 0.31309838E-01 0.44044342E+03</pdfrwt>
<pdfrwt beam="2">  1       21 0.33498212E-01 0.44044342E+03</pdfrwt>
<totfact> 0.78315072E+04</totfact>
</mgrwt>
</event>
<event>
 7    0  0.4709932E-002  0.4527156E+03  0.7546771E-02  0.1026915E+00
         21   -1    0    0  502  501  0.00000000000E+00  0.00000000000E+00  0.10107220889E+03  0.10107220889E+03  0.00000000000E+00 0. -1.
         21   -1    0    0  501  502 -0.00000000000E+00 -0.00000000000E+00 -0.50694300607E+03  0.50694300607E+03  0.00000000000E+00 0. -1.
      99926    2    1    2    0    0  0.00000000000E+00  0.00000000000E+00 -0.40587079718E+03  0.60801521497E+03  0.45271558139E+03 0.  0.
      99925    2    3    3    0    0  0.21535410978E+02 -0.94926155847E+02 -0.32775504042E+03  0.43131114443E+03  0.26292810386E+03 0.  0.
         25    1    3    3    0    0 -0.21535410978E+02  0.94926155847E+02 -0.78115756759E+02  0.17670407054E+03  0.12509000000E+03 0.  0.
         25    1    4    4    0    0  0.45449370581E+02 -0.28892278248E+02 -0.14420168675E+03  0.19834828860E+03  0.12509000000E+03 0.  0.
         25    1    4    4    0    0 -0.23913959604E+02 -0.66033877599E+02 -0.18355335368E+03  0.23296285584E+03  0.12509000000E+03 0.  0.
<mgrwt>
<rscale>  2 0.45271558E+03</rscale>
<asrwt>0</asrwt>
<pdfrwt beam="1">  1       21 0.14863560E-01 0.45271558E+03</pdfrwt>
<pdfrwt beam="2">  1       21 0.74550441E-01 0.45271558E+03</pdfrwt>
<totfact> 0.59249564E+04</totfact>
</mgrwt>
</event>
<event>
 7    0  0.4709932E-002  0.4591755E+03  0.7546771E-02  0.1025021E+00
         21   -1    0    0  502  501  0.00000000000E+00  0.00000000000E+00  0.17966871000E+04  0.17966871000E+04  0.00000000000E+00 0.  1.
         21   -1    0    0  501  502 -0.00000000000E+00 -0.00000000000E+00 -0.29337625215E+02  0.29337625215E+02  0.00000000000E+00 0.  1.
      99926    2    1    2    0    0  0.00000000000E+00  0.00000000000E+00  0.17673494748E+04  0.18260247252E+04  0.45917549050E+03 0.  0.
      99925    2    3    3    0    0  0.90905177544E+02 -0.33226627236E+02  0.13699881603E+04  0.13983434392E+04  0.26292404705E+03 0.  0.
         25    1    3    3    0    0 -0.90905177544E+02  0.33226627236E+02  0.39736131446E+03  0.42768128600E+03  0.12509000000E+03 0.  0.
         25    1    4    4    0    0  0.54832905595E+02  0.20424123914E+02  0.61203265021E+03  0.62741952902E+03  0.12509000000E+03 0.  0.
         25    1    4    4    0    0  0.36072271948E+02 -0.53650751150E+02  0.75795551011E+03  0.77092391019E+03  0.12509000000E+03 0.  0.
<mgrwt>
<rscale>  2 0.45917549E+03</rscale>
<asrwt>0</asrwt>
<pdfrwt beam="1">  1       21 0.26421862E+00 0.45917549E+03</pdfrwt>
<pdfrwt beam="2">  1       21 0.43143579E-02 0.45917549E+03</pdfrwt>
<totfact> 0.16232164E+04</totfact>
</mgrwt>
</event>
<event>
 7    0  0.4709932E-002  0.4559861E+03  0.7546771E-02  0.1025952E+00
         21   -1    0    0  502  501  0.00000000000E+00  0.00000000000E+00  0.35398677585E+03  0.35398677585E+03  0.00000000000E+00 0. -1.
         21   -1    0    0  501  502 -0.00000000000E+00 -0.00000000000E+00 -0.14684398667E+03  0.14684398667E+03  0.00000000000E+00 0. -1.
      99926    2    1    2    0    0 -0.71054273576E-14  0.00000000000E+00  0.20714278918E+03  0.50083076252E+03  0.45598609362E+03 0.  0.
      99925    2    3    3    0    0  0.42454716922E+02 -0.10063242292E+03  0.16628018067E+03  0.32981453987E+03  0.26305749314E+03 0.  0.
         25    1    4    4    0    0 -0.12759593273E+02 -0.59238950169E+02  0.10578851672E+03  0.17467334887E+03  0.12509000000E+03 0.  0.
         25    1    3    3    0    0 -0.42454716922E+02  0.10063242292E+03  0.40862608507E+02  0.17101622264E+03  0.12509000000E+03 0.  0.
         25    1    4    4    0    0  0.55214310195E+02 -0.41393472756E+02  0.60491663954E+02  0.15514119100E+03  0.12509000000E+03 0.  0.
<mgrwt>
<rscale>  2 0.45598609E+03</rscale>
<asrwt>0</asrwt>
<pdfrwt beam="1">  1       21 0.52056879E-01 0.45598609E+03</pdfrwt>
<pdfrwt beam="2">  1       21 0.21594704E-01 0.45598609E+03</pdfrwt>
<totfact> 0.64704371E+04</totfact>
</mgrwt>
</event>
<event>
 7    0  0.4709932E-002  0.4398458E+03  0.7546771E-02  0.1030794E+00
         21   -1    0    0  502  501  0.00000000000E+00  0.00000000000E+00  0.12363269132E+03  0.12363269132E+03  0.00000000000E+00 0.  1.
         21   -1    0    0  501  502 -0.00000000000E+00 -0.00000000000E+00 -0.39120785461E+03  0.39120785461E+03  0.00000000000E+00 0.  1.
      99926    2    1    2    0    0  0.00000000000E+00 -0.71054273576E-14 -0.26757516329E+03  0.51484054593E+03  0.43984579084E+03 0.  0.
      99925    2    3    3    0    0 -0.70903926510E+01  0.47341435596E+02 -0.27124764292E+03  0.38085367941E+03  0.26302615106E+03 0.  0.
         25    1    4    4    0    0 -0.46595972953E+01 -0.17218113909E+02 -0.13571548902E+03  0.18543024930E+03  0.12509000000E+03 0.  0.
         25    1    3    3    0    0  0.70903926510E+01 -0.47341435596E+02  0.36724796272E+01  0.13398686652E+03  0.12509000000E+03 0.  0.
         25    1    4    4    0    0 -0.24307953557E+01  0.64559549504E+02 -0.13553215390E+03  0.19542343012E+03  0.12509000000E+03 0.  0.
<mgrwt>
<rscale>  2 0.43984579E+03</rscale>
<asrwt>0</asrwt>
<pdfrwt beam="1">  1       21 0.18181278E-01 0.43984579E+03</pdfrwt>
<pdfrwt beam="2">  1       21 0.57530568E-01 0.43984579E+03</pdfrwt>
<totfact> 0.72576552E+04</totfact>
</mgrwt>
</event>
<event>
 7    0  0.4709932E-002  0.4446938E+03  0.7546771E-02  0.1029316E+00
         21   -1    0    0  502  501  0.00000000000E+00  0.00000000000E+00  0.87666152286E+02  0.87666152286E+02  0.00000000000E+00 0.  1.
         21   -1    0    0  501  502 -0.00000000000E+00 -0.00000000000E+00 -0.56393652333E+03  0.56393652333E+03  0.00000000000E+00 0.  1.
      99926    2    1    2    0    0 -0.88817841970E-15  0.00000000000E+00 -0.47627037104E+03  0.65160267561E+03  0.44469380537E+03 0.  0.
      99925    2    3    3    0    0 -0.44955155537E+01 -0.92053656205E+02 -0.23531639156E+03  0.36489653057E+03  0.26321395974E+03 0.  0.
         25    1    4    4    0    0  0.10959821021E+02 -0.29002111643E+02 -0.15885994146E+03  0.20456106486E+03  0.12509000000E+03 0.  0.
         25    1    4    4    0    0 -0.15455336575E+02 -0.63051544562E+02 -0.76456450100E+02  0.16033546570E+03  0.12509000000E+03 0.  0.
         25    1    3    3    0    0  0.44955155537E+01  0.92053656205E+02 -0.24095397948E+03  0.28670614505E+03  0.12509000000E+03 0.  0.
<mgrwt>
<rscale>  2 0.44469381E+03</rscale>
<asrwt>0</asrwt>
<pdfrwt beam="1">  1       21 0.12892081E-01 0.44469381E+03</pdfrwt>
<pdfrwt beam="2">  1       21 0.82931841E-01 0.44469381E+03</pdfrwt>
<totfact> 0.60369089E+04</totfact>
</mgrwt>
</event>
<event>
 7    0  0.4709932E-002  0.4530193E+03  0.7546771E-02  0.1026825E+00
         21   -1    0    0  502  501  0.00000000000E+00  0.00000000000E+00  0.22528791848E+03  0.22528791848E+03  0.00000000000E+00 0.  1.
         21   -1    0    0  501  502 -0.00000000000E+00 -0.00000000000E+00 -0.22773804535E+03  0.22773804535E+03  0.00000000000E+00 0.  1.
      99926    2    1    2    0    0  0.00000000000E+00  0.71054273576E-14 -0.24501268734E+01  0.45302596382E+03  0.45301933819E+03 0.  0.
      99925    2    3    3    0    0 -0.30461658334E+02 -0.58254497750E+02  0.88310556743E+02  0.28507802866E+03  0.26296240958E+03 0.  0.
         25    1    3    3    0    0  0.30461658334E+02  0.58254497750E+02 -0.90760683616E+02  0.16794793517E+03  0.12509000000E+03 0.  0.
         25    1    4    4    0    0 -0.36699857004E+02 -0.49509301387E+02  0.16443006608E+02  0.14041342882E+03  0.12509000000E+03 0.  0.
         25    1    4    4    0    0  0.62381986703E+01 -0.87451963629E+01  0.71867550135E+02  0.14466459983E+03  0.12509000000E+03 0.  0.
<mgrwt>
<rscale>  2 0.45301934E+03</rscale>
<asrwt>0</asrwt>
<pdfrwt beam="1">  1       21 0.33130577E-01 0.45301934E+03</pdfrwt>
<pdfrwt beam="2">  1       21 0.33490889E-01 0.45301934E+03</pdfrwt>
<totfact> 0.69787032E+04</totfact>
</mgrwt>
</event>
<event>
 7    0  0.4709932E-002  0.4533954E+03  0.7546771E-02  0.1026714E+00
         21   -1    0    0  502  501  0.00000000000E+00  0.00000000000E+00  0.12418690622E+03  0.12418690622E+03  0.00000000000E+00 0.  1.
         21   -1    0    0  501  502 -0.00000000000E+00 -0.00000000000E+00 -0.41382669806E+03  0.41382669806E+03  0.00000000000E+00 0.  1.
      99926    2    1    2    0    0  0.11102230246E-15 -0.71054273576E-14 -0.28963979184E+03  0.53801360428E+03  0.45339544481E+03 0.  0.
      99925    2    3    3    0    0 -0.77900860260E+00  0.61551233078E+02 -0.29291895728E+03  0.39855958973E+03  0.26317117981E+03 0.  0.
         25    1    4    4    0    0 -0.14061359746E+02  0.39772762292E+01 -0.98205803883E+02  0.15970419087E+03  0.12509000000E+03 0.  0.
         25    1    4    4    0    0  0.13282351143E+02  0.57573956849E+02 -0.19471315339E+03  0.23885539886E+03  0.12509000000E+03 0.  0.
         25    1    3    3    0    0  0.77900860260E+00 -0.61551233078E+02  0.32791654420E+01  0.13945401455E+03  0.12509000000E+03 0.  0.
<mgrwt>
<rscale>  2 0.45339544E+03</rscale>
<asrwt>0</asrwt>
<pdfrwt beam="1">  1       21 0.18262781E-01 0.45339544E+03</pdfrwt>
<pdfrwt beam="2">  1       21 0.60856866E-01 0.45339544E+03</pdfrwt>
<totfact> 0.63467741E+04</totfact>
</mgrwt>
</event>
<event>
 7    0  0.4709932E-002  0.4552166E+03  0.7546771E-02  0.1026178E+00
         21   -1    0    0  502  501  0.00000000000E+00  0.00000000000E+00  0.95303760397E+02  0.95303760397E+02  0.00000000000E+00 0.  1.
         21   -1    0    0  501  502 -0.00000000000E+00 -0.00000000000E+00 -0.54358336764E+03  0.54358336764E+03  0.00000000000E+00 0.  1.
      99926    2    1    2    0    0  0.35527136788E-14  0.00000000000E+00 -0.44827960725E+03  0.63888712804E+03  0.45521660350E+03 0.  0.
      99925    2    3    3    0    0  0.18983695095E+02 -0.10740142069E+03 -0.23848561179E+03  0.37138670846E+03  0.26297766891E+03 0.  0.
         25    1    3    3    0    0 -0.18983695095E+02  0.10740142069E+03 -0.20979399546E+03  0.26750041958E+03  0.12509000000E+03 0.  0.
         25    1    4    4    0    0  0.19650057888E+02 -0.69896324566E+02 -0.17236567425E+03  0.22500901032E+03  0.12509000000E+03 0.  0.
         25    1    4    4    0    0 -0.66636279236E+00 -0.37505096121E+02 -0.66119937535E+02  0.14637769814E+03  0.12509000000E+03 0.  0.
<mgrwt>
<rscale>  2 0.45521660E+03</rscale>
<asrwt>0</asrwt>
<pdfrwt beam="1">  1       21 0.14015259E-01 0.45521660E+03</pdfrwt>
<pdfrwt beam="2">  1       21 0.79938731E-01 0.45521660E+03</pdfrwt>
<totfact> 0.56250068E+04</totfact>
</mgrwt>
</event>
<event>
 7    0  0.4709932E-002  0.4564488E+03  0.7546771E-02  0.1025816E+00
         21   -1    0    0  502  501  0.00000000000E+00  0.00000000000E+00  0.27629403357E+03  0.27629403357E+03  0.00000000000E+00 0. -1.
         21   -1    0    0  501  502 -0.00000000000E+00 -0.00000000000E+00 -0.18851793464E+03  0.18851793464E+03  0.00000000000E+00 0. -1.
      99926    2    1    2    0    0  0.00000000000E+00 -0.71054273576E-14  0.87776098934E+02  0.46481196821E+03  0.45644881668E+03 0.  0.
      99925    2    3    3    0    0  0.52943983155E+02  0.51750166385E+02 -0.33778640004E+02  0.27532791154E+03  0.26302721775E+03 0.  0.
         25    1    3    3    0    0 -0.52943983155E+02 -0.51750166385E+02  0.12155473894E+03  0.18948405667E+03  0.12509000000E+03 0.  0.
         25    1    4    4    0    0 -0.62410985209E+00  0.49986480163E+02  0.15887439536E+01  0.13471848396E+03  0.12509000000E+03 0.  0.
         25    1    4    4    0    0  0.53568093007E+02  0.17636862219E+01 -0.35367383957E+02  0.14060942758E+03  0.12509000000E+03 0.  0.
<mgrwt>
<rscale>  2 0.45644882E+03</rscale>
<asrwt>0</asrwt>
<pdfrwt beam="1">  1       21 0.40631476E-01 0.45644882E+03</pdfrwt>
<pdfrwt beam="2">  1       21 0.27723225E-01 0.45644882E+03</pdfrwt>
<totfact> 0.67048614E+04</totfact>
</mgrwt>
</event>
<event>
 7    0  0.4709932E-002  0.4553037E+03  0.7546771E-02  0.1026152E+00
         21   -1    0    0  502  501  0.00000000000E+00  0.00000000000E+00  0.77039108268E+03  0.77039108268E+03  0.00000000000E+00 0. -1.
         21   -1    0    0  501  502 -0.00000000000E+00 -0.00000000000E+00 -0.67271487075E+02  0.67271487075E+02  0.00000000000E+00 0. -1.
      99926    2    1    2    0    0  0.00000000000E+00  0.00000000000E+00  0.70311959561E+03  0.83766256976E+03  0.45530365147E+03 0.  0.
      99925    2    3    3    0    0  0.10192917323E+03 -0.40133836737E+02  0.38802127011E+03  0.48138354422E+03  0.26300062620E+03 0.  0.
         25    1    4    4    0    0  0.38042708106E+02 -0.39469924346E+02  0.13527203194E+03  0.19222682772E+03  0.12509000000E+03 0.  0.
         25    1    3    3    0    0 -0.10192917323E+03  0.40133836737E+02  0.31509832550E+03  0.35627902554E+03  0.12509000000E+03 0.  0.
         25    1    4    4    0    0  0.63886465123E+02 -0.66391239128E+00  0.25274923817E+03  0.28915671651E+03  0.12509000000E+03 0.  0.
<mgrwt>
<rscale>  2 0.45530365E+03</rscale>
<asrwt>0</asrwt>
<pdfrwt beam="1">  1       21 0.11329280E+00 0.45530365E+03</pdfrwt>
<pdfrwt beam="2">  1       21 0.98928662E-02 0.45530365E+03</pdfrwt>
<totfact> 0.45887004E+04</totfact>
</mgrwt>
</event>
<event>
 7    0  0.4709932E-002  0.4541004E+03  0.7546771E-02  0.1026506E+00
         21   -1    0    0  502  501  0.00000000000E+00  0.00000000000E+00  0.77292396999E+03  0.77292396999E+03  0.00000000000E+00 0.  1.
         21   -1    0    0  501  502 -0.00000000000E+00 -0.00000000000E+00 -0.66697108127E+02  0.66697108127E+02  0.00000000000E+00 0.  1.
      99926    2    1    2    0    0  0.00000000000E+00  0.35527136788E-14  0.70622686186E+03  0.83962107811E+03  0.45410040123E+03 0.  0.
      99925    2    3    3    0    0 -0.60817646726E+02 -0.26754824342E+02  0.27727731463E+03  0.38789125958E+03  0.26298728729E+03 0.  0.
         25    1    4    4    0    0 -0.36572401636E+02 -0.14502655706E+02  0.82856427217E+02  0.15511467763E+03  0.12509000000E+03 0.  0.
         25    1    3    3    0    0  0.60817646726E+02  0.26754824342E+02  0.42894954723E+03  0.45172981853E+03  0.12509000000E+03 0.  0.
         25    1    4    4    0    0 -0.24245245089E+02 -0.12252168636E+02  0.19442088741E+03  0.23277658196E+03  0.12509000000E+03 0.  0.
<mgrwt>
<rscale>  2 0.45410040E+03</rscale>
<asrwt>0</asrwt>
<pdfrwt beam="1">  1       21 0.11366528E+00 0.45410040E+03</pdfrwt>
<pdfrwt beam="2">  1       21 0.98083987E-02 0.45410040E+03</pdfrwt>
<totfact> 0.46232727E+04</totfact>
</mgrwt>
</event>
<event>
 7    0  0.4709932E-002  0.4551031E+03  0.7546771E-02  0.1026211E+00
         21   -1    0    0  502  501  0.00000000000E+00  0.00000000000E+00  0.92790201842E+03  0.92790201842E+03  0.00000000000E+00 0. -1.
         21   -1    0    0  501  502 -0.00000000000E+00 -0.00000000000E+00 -0.55802990006E+02  0.55802990006E+02  0.00000000000E+00 0. -1.
      99926    2    1    2    0    0  0.00000000000E+00  0.00000000000E+00  0.87209902841E+03  0.98370500843E+03  0.45510309628E+03 0.  0.
      99925    2    3    3    0    0  0.10074402641E+03 -0.13411671964E+02  0.44069140382E+03  0.52317349109E+03  0.26300638125E+03 0.  0.
         25    1    4    4    0    0  0.67513513734E+02  0.10450065654E+02  0.16750723478E+03  0.21993967403E+03  0.12509000000E+03 0.  0.
         25    1    4    4    0    0  0.33230512677E+02 -0.23861737619E+02  0.27318416904E+03  0.30323381706E+03  0.12509000000E+03 0.  0.
         25    1    3    3    0    0 -0.10074402641E+03  0.13411671964E+02  0.43140762459E+03  0.46053151734E+03  0.12509000000E+03 0.  0.
<mgrwt>
<rscale>  2 0.45510310E+03</rscale>
<asrwt>0</asrwt>
<pdfrwt beam="1">  1       21 0.13645617E+00 0.45510310E+03</pdfrwt>
<pdfrwt beam="2">  1       21 0.82063226E-02 0.45510310E+03</pdfrwt>
<totfact> 0.39772987E+04</totfact>
</mgrwt>
</event>
<event>
 7    0  0.4709932E-002  0.4532222E+03  0.7546771E-02  0.1026766E+00
         21   -1    0    0  502  501  0.00000000000E+00  0.00000000000E+00  0.12322499289E+03  0.12322499289E+03  0.00000000000E+00 0. -1.
         21   -1    0    0  501  502 -0.00000000000E+00 -0.00000000000E+00 -0.41673834845E+03  0.41673834845E+03  0.00000000000E+00 0. -1.
      99926    2    1    2    0    0  0.00000000000E+00  0.14210854715E-13 -0.29351335556E+03  0.53996334134E+03  0.45322215315E+03 0.  0.
      99925    2    3    3    0    0 -0.46583746859E+02 -0.10132458231E+03 -0.18532035269E+03  0.34048915649E+03  0.26296865996E+03 0.  0.
         25    1    4    4    0    0 -0.45105507555E+02 -0.18327953507E+02 -0.10360284456E+03  0.16956260847E+03  0.12509000000E+03 0.  0.
         25    1    3    3    0    0  0.46583746859E+02  0.10132458231E+03 -0.10819300287E+03  0.19947418485E+03  0.12509000000E+03 0.  0.
         25    1    4    4    0    0 -0.14782393037E+01 -0.82996628798E+02 -0.81717508129E+02  0.17092654802E+03  0.12509000000E+03 0.  0.
<mgrwt>
<rscale>  2 0.45322215E+03</rscale>
<asrwt>0</asrwt>
<pdfrwt beam="1">  1       21 0.18121323E-01 0.45322215E+03</pdfrwt>
<pdfrwt beam="2">  1       21 0.61285050E-01 0.45322215E+03</pdfrwt>
<totfact> 0.63422289E+04</totfact>
</mgrwt>
</event>
<event>
 7    0  0.4709932E-002  0.4454146E+03  0.7546771E-02  0.1029098E+00
         21   -1    0    0  502  501  0.00000000000E+00  0.00000000000E+00  0.15493027890E+04  0.15493027890E+04  0.00000000000E+00 0.  1.
         21   -1    0    0  501  502 -0.00000000000E+00 -0.00000000000E+00 -0.32013454802E+02  0.32013454802E+02  0.00000000000E+00 0.  1.
      99926    2    1    2    0    0  0.00000000000E+00  0.00000000000E+00  0.15172893342E+04  0.15813162439E+04  0.44541457009E+03 0.  0.
      99925    2    3    3    0    0 -0.98355589307E+02  0.27851513623E+02  0.89592988526E+03  0.93930019912E+03  0.26295432301E+03 0.  0.
         25    1    4    4    0    0 -0.49031536989E+02  0.13220312118E+02  0.58233860142E+03  0.59778309032E+03  0.12509000000E+03 0.  0.
         25    1    4    4    0    0 -0.49324052318E+02  0.14631201506E+02  0.31359128385E+03  0.34151710880E+03  0.12509000000E+03 0.  0.
         25    1    3    3    0    0  0.98355589307E+02 -0.27851513623E+02  0.62135944898E+03  0.64201604474E+03  0.12509000000E+03 0.  0.
<mgrwt>
<rscale>  2 0.44541457E+03</rscale>
<asrwt>0</asrwt>
<pdfrwt beam="1">  1       21 0.22783859E+00 0.44541457E+03</pdfrwt>
<pdfrwt beam="2">  1       21 0.47078621E-02 0.44541457E+03</pdfrwt>
<totfact> 0.23560310E+04</totfact>
</mgrwt>
</event>
<event>
 7    0  0.4709932E-002  0.4447762E+03  0.7546771E-02  0.1029291E+00
         21   -1    0    0  502  501  0.00000000000E+00  0.00000000000E+00  0.27939030906E+02  0.27939030906E+02  0.00000000000E+00 0.  1.
         21   -1    0    0  501  502 -0.00000000000E+00 -0.00000000000E+00 -0.17701570396E+04  0.17701570396E+04  0.00000000000E+00 0.  1.
      99926    2    1    2    0    0  0.00000000000E+00  0.00000000000E+00 -0.17422180087E+04  0.17980960705E+04  0.44477622345E+03 0.  0.
      99925    2    3    3    0    0  0.62627544865E+02 -0.66362407523E+02 -0.92541280831E+03  0.96674510853E+03  0.26435026115E+03 0.  0.
         25    1    4    4    0    0  0.57455790785E+02 -0.28462606321E+02 -0.59506735489E+03  0.61144415347E+03  0.12509000000E+03 0.  0.
         25    1    3    3    0    0 -0.62627544865E+02  0.66362407523E+02 -0.81680520038E+03  0.83135096197E+03  0.12509000000E+03 0.  0.
         25    1    4    4    0    0  0.51717540795E+01 -0.37899801202E+02 -0.33034545342E+03  0.35530095506E+03  0.12509000000E+03 0.  0.
<mgrwt>
<rscale>  2 0.44477622E+03</rscale>
<asrwt>0</asrwt>
<pdfrwt beam="1">  1       21 0.41086802E-02 0.44477622E+03</pdfrwt>
<pdfrwt beam="2">  1       21 0.26031726E+00 0.44477622E+03</pdfrwt>
<totfact> 0.18739544E+04</totfact>
</mgrwt>
</event>
<event>
 7    0  0.4709932E-002  0.4671615E+03  0.7546771E-02  0.1022724E+00
         21   -1    0    0  502  501  0.00000000000E+00  0.00000000000E+00  0.10266607553E+03  0.10266607553E+03  0.00000000000E+00 0.  1.
         21   -1    0    0  501  502 -0.00000000000E+00 -0.00000000000E+00 -0.53143123372E+03  0.53143123372E+03  0.00000000000E+00 0.  1.
      99926    2    1    2    0    0  0.00000000000E+00  0.00000000000E+00 -0.42876515819E+03  0.63409730925E+03  0.46716146751E+03 0.  0.
      99925    2    3    3    0    0  0.96008064306E+02 -0.77524267498E+02 -0.24772023169E+03  0.38180316748E+03  0.26302240408E+03 0.  0.
         25    1    4    4    0    0  0.27693530081E+02 -0.15280146533E+02 -0.74431691264E+02  0.14895636694E+03  0.12509000000E+03 0.  0.
         25    1    4    4    0    0  0.68314534224E+02 -0.62244120965E+02 -0.17328854042E+03  0.23284680054E+03  0.12509000000E+03 0.  0.
         25    1    3    3    0    0 -0.96008064306E+02  0.77524267498E+02 -0.18104492650E+03  0.25229414178E+03  0.12509000000E+03 0.  0.
<mgrwt>
<rscale>  2 0.46716147E+03</rscale>
<asrwt>0</asrwt>
<pdfrwt beam="1">  1       21 0.15097952E-01 0.46716147E+03</pdfrwt>
<pdfrwt beam="2">  1       21 0.78151653E-01 0.46716147E+03</pdfrwt>
<totfact> 0.51501947E+04</totfact>
</mgrwt>
</event>
<event>
 7    0  0.4709932E-002  0.4531278E+03  0.7546771E-02  0.1026793E+00
         21   -1    0    0  502  501  0.00000000000E+00  0.00000000000E+00  0.14680533748E+04  0.14680533748E+04  0.00000000000E+00 0. -1.
         21   -1    0    0  501  502 -0.00000000000E+00 -0.00000000000E+00 -0.34965488547E+02  0.34965488547E+02  0.00000000000E+00 0. -1.
      99926    2    1    2    0    0  0.44408920985E-14 -0.14210854715E-13  0.14330878862E+04  0.15030188633E+04  0.45312781183E+03 0.  0.
      99925    2    3    3    0    0  0.71283592595E+01 -0.10128149019E+03  0.10550089380E+04  0.10920444688E+04  0.26307510110E+03 0.  0.
         25    1    4    4    0    0  0.42574181510E+02 -0.43450120551E+02  0.48610493884E+03  0.50561447128E+03  0.12509000000E+03 0.  0.
         25    1    3    3    0    0 -0.71283592595E+01  0.10128149019E+03  0.37807894827E+03  0.41097439456E+03  0.12509000000E+03 0.  0.
         25    1    4    4    0    0 -0.35445822251E+02 -0.57831369635E+02  0.56890399913E+03  0.58642999749E+03  0.12509000000E+03 0.  0.
<mgrwt>
<rscale>  2 0.45312781E+03</rscale>
<asrwt>0</asrwt>
<pdfrwt beam="1">  1       21 0.21589016E+00 0.45312781E+03</pdfrwt>
<pdfrwt beam="2">  1       21 0.51419846E-02 0.45312781E+03</pdfrwt>
<totfact> 0.24053113E+04</totfact>
</mgrwt>
</event>
<event>
 7    0  0.4709932E-002  0.4549140E+03  0.7546771E-02  0.1026267E+00
         21   -1    0    0  502  501  0.00000000000E+00  0.00000000000E+00  0.12841255274E+03  0.12841255274E+03  0.00000000000E+00 0. -1.
         21   -1    0    0  501  502 -0.00000000000E+00 -0.00000000000E+00 -0.40289429244E+03  0.40289429244E+03  0.00000000000E+00 0. -1.
      99926    2    1    2    0    0  0.00000000000E+00  0.00000000000E+00 -0.27448173970E+03  0.53130684518E+03  0.45491399001E+03 0.  0.
      99925    2    3    3    0    0  0.34651237884E+02  0.32905597008E+02 -0.52919055380E+02  0.27242266686E+03  0.26292621854E+03 0.  0.
         25    1    4    4    0    0 -0.19616388336E+02  0.12064281774E+01 -0.15889253246E+02  0.12761753261E+03  0.12509000000E+03 0.  0.
         25    1    3    3    0    0 -0.34651237884E+02 -0.32905597008E+02 -0.22156268432E+03  0.25888417832E+03  0.12509000000E+03 0.  0.
         25    1    4    4    0    0  0.54267626220E+02  0.31699168830E+02 -0.37029802134E+02  0.14480513425E+03  0.12509000000E+03 0.  0.
<mgrwt>
<rscale>  2 0.45491399E+03</rscale>
<asrwt>0</asrwt>
<pdfrwt beam="1">  1       21 0.18884198E-01 0.45491399E+03</pdfrwt>
<pdfrwt beam="2">  1       21 0.59249162E-01 0.45491399E+03</pdfrwt>
<totfact> 0.63161176E+04</totfact>
</mgrwt>
</event>
<event>
 7    0  0.4709932E-002  0.4639429E+03  0.7546771E-02  0.1023644E+00
         21   -1    0    0  502  501  0.00000000000E+00  0.00000000000E+00  0.51947609685E+02  0.51947609685E+02  0.00000000000E+00 0. -1.
         21   -1    0    0  501  502 -0.00000000000E+00 -0.00000000000E+00 -0.10358659865E+04  0.10358659865E+04  0.00000000000E+00 0. -1.
      99926    2    1    2    0    0  0.00000000000E+00 -0.26645352591E-14 -0.98391837681E+03  0.10878135962E+04  0.46394293594E+03 0.  0.
      99925    2    3    3    0    0  0.29903280147E+02 -0.78714593369E+01 -0.33889099194E+03  0.43004159817E+03  0.26293061005E+03 0.  0.
         25    1    3    3    0    0 -0.29903280147E+02  0.78714593369E+01 -0.64502738487E+03  0.65777199802E+03  0.12509000000E+03 0.  0.
         25    1    4    4    0    0  0.10866798093E+02 -0.29692383004E+02 -0.11962067425E+03  0.17594413522E+03  0.12509000000E+03 0.  0.
         25    1    4    4    0    0  0.19036482055E+02  0.21820923667E+02 -0.21927031769E+03  0.25409746295E+03  0.12509000000E+03 0.  0.
<mgrwt>
<rscale>  2 0.46394294E+03</rscale>
<asrwt>0</asrwt>
<pdfrwt beam="1">  1       21 0.76393550E-02 0.46394294E+03</pdfrwt>
<pdfrwt beam="2">  1       21 0.15233322E+00 0.46394294E+03</pdfrwt>
<totfact> 0.33519120E+04</totfact>
</mgrwt>
</event>
<event>
 7    0  0.4709932E-002  0.4506090E+03  0.7546771E-02  0.1027541E+00
         21   -1    0    0  502  501  0.00000000000E+00  0.00000000000E+00  0.41818285694E+02  0.41818285694E+02  0.00000000000E+00 0.  1.
         21   -1    0    0  501  502 -0.00000000000E+00 -0.00000000000E+00 -0.12138735718E+04  0.12138735718E+04  0.00000000000E+00 0.  1.
      99926    2    1    2    0    0  0.00000000000E+00  0.00000000000E+00 -0.11720552861E+04  0.12556918575E+04  0.45060897383E+03 0.  0.
      99925    2    3    3    0    0 -0.46128634834E+02  0.44242532132E+02 -0.50053497851E+03  0.56963625900E+03  0.26431978788E+03 0.  0.
         25    1    3    3    0    0  0.46128634834E+02 -0.44242532132E+02 -0.67152030764E+03  0.68605559853E+03  0.12509000000E+03 0.  0.
         25    1    4    4    0    0 -0.32825032902E+02  0.62550826806E+02 -0.23920046147E+03  0.27902411649E+03  0.12509000000E+03 0.  0.
         25    1    4    4    0    0 -0.13303601932E+02 -0.18308294674E+02 -0.26133451704E+03  0.29061214251E+03  0.12509000000E+03 0.  0.
<mgrwt>
<rscale>  2 0.45060897E+03</rscale>
<asrwt>0</asrwt>
<pdfrwt beam="1">  1       21 0.61497492E-02 0.45060897E+03</pdfrwt>
<pdfrwt beam="2">  1       21 0.17851078E+00 0.45060897E+03</pdfrwt>
<totfact> 0.31491808E+04</totfact>
</mgrwt>
</event>
<event>
 7    0  0.4709932E-002  0.4546249E+03  0.7546771E-02  0.1026352E+00
         21   -1    0    0  502  501  0.00000000000E+00  0.00000000000E+00  0.41031589465E+03  0.41031589465E+03  0.00000000000E+00 0. -1.
         21   -1    0    0  501  502 -0.00000000000E+00 -0.00000000000E+00 -0.12592968446E+03  0.12592968446E+03  0.00000000000E+00 0. -1.
      99926    2    1    2    0    0  0.00000000000E+00  0.71054273576E-14  0.28438621019E+03  0.53624557911E+03  0.45462490535E+03 0.  0.
      99925    2    3    3    0    0 -0.13414057138E+02  0.27627878808E+02  0.30694870835E+03  0.40547933331E+03  0.26315916015E+03 0.  0.
         25    1    3    3    0    0  0.13414057138E+02 -0.27627878808E+02 -0.22562498155E+02  0.13076624580E+03  0.12509000000E+03 0.  0.
         25    1    4    4    0    0 -0.24923955152E+02  0.48078292543E+02  0.17921423456E+03  0.22516210988E+03  0.12509000000E+03 0.  0.
         25    1    4    4    0    0  0.11509898014E+02 -0.20450413736E+02  0.12773447378E+03  0.18031722344E+03  0.12509000000E+03 0.  0.
<mgrwt>
<rscale>  2 0.45462491E+03</rscale>
<asrwt>0</asrwt>
<pdfrwt beam="1">  1       21 0.60340573E-01 0.45462491E+03</pdfrwt>
<pdfrwt beam="2">  1       21 0.18519071E-01 0.45462491E+03</pdfrwt>
<totfact> 0.62971406E+04</totfact>
</mgrwt>
</event>
<event>
 7    0  0.4709932E-002  0.4459118E+03  0.7546771E-02  0.1028948E+00
         21   -1    0    0  502  501  0.00000000000E+00  0.00000000000E+00  0.11250498952E+03  0.11250498952E+03  0.00000000000E+00 0. -1.
         21   -1    0    0  501  502 -0.00000000000E+00 -0.00000000000E+00 -0.44184107460E+03  0.44184107460E+03  0.00000000000E+00 0. -1.
      99926    2    1    2    0    0  0.14210854715E-13  0.00000000000E+00 -0.32933608507E+03  0.55434606412E+03  0.44591176467E+03 0.  0.
      99925    2    3    3    0    0 -0.88687524560E+02  0.39572048095E+02 -0.25673689762E+03  0.38013477252E+03  0.26297754025E+03 0.  0.
         25    1    4    4    0    0 -0.68334088170E+01  0.21863933498E+01 -0.13074374307E+03  0.18108812839E+03  0.12509000000E+03 0.  0.
         25    1    3    3    0    0  0.88687524560E+02 -0.39572048095E+02 -0.72599187454E+02  0.17421129160E+03  0.12509000000E+03 0.  0.
         25    1    4    4    0    0 -0.81854115743E+02  0.37385654745E+02 -0.12599315454E+03  0.19904664412E+03  0.12509000000E+03 0.  0.
<mgrwt>
<rscale>  2 0.44591176E+03</rscale>
<asrwt>0</asrwt>
<pdfrwt beam="1">  1       21 0.16544851E-01 0.44591176E+03</pdfrwt>
<pdfrwt beam="2">  1       21 0.64976629E-01 0.44591176E+03</pdfrwt>
<totfact> 0.66213890E+04</totfact>
</mgrwt>
</event>
<event>
 7    0  0.4709932E-002  0.4535243E+03  0.7546771E-02  0.1026676E+00
         21   -1    0    0  502  501  0.00000000000E+00  0.00000000000E+00  0.54921771539E+02  0.54921771539E+02  0.00000000000E+00 0. -1.
         21   -1    0    0  501  502 -0.00000000000E+00 -0.00000000000E+00 -0.93626010173E+03  0.93626010173E+03  0.00000000000E+00 0. -1.
      99926    2    1    2    0    0  0.00000000000E+00  0.17763568394E-14 -0.88133833019E+03  0.99118187327E+03  0.45352425915E+03 0.  0.
      99925    2    3    3    0    0 -0.11060278542E+03  0.13183757056E+02 -0.53441946636E+03  0.60594559022E+03  0.26298118696E+03 0.  0.
         25    1    4    4    0    0 -0.22810889683E+02  0.32738544097E+02 -0.25799842357E+03  0.28948720805E+03  0.12509000000E+03 0.  0.
         25    1    3    3    0    0  0.11060278542E+03 -0.13183757056E+02 -0.34691886383E+03  0.38523628304E+03  0.12509000000E+03 0.  0.
         25    1    4    4    0    0 -0.87791895737E+02 -0.19554787041E+02 -0.27642104278E+03  0.31645838217E+03  0.12509000000E+03 0.  0.
<mgrwt>
<rscale>  2 0.45352426E+03</rscale>
<asrwt>0</asrwt>
<pdfrwt beam="1">  1       21 0.80767306E-02 0.45352426E+03</pdfrwt>
<pdfrwt beam="2">  1       21 0.13768532E+00 0.45352426E+03</pdfrwt>
<totfact> 0.39970232E+04</totfact>
</mgrwt>
</event>
<event>
 7    0  0.4709932E-002  0.4626130E+03  0.7546771E-02  0.1024026E+00
         21   -1    0    0  502  501  0.00000000000E+00  0.00000000000E+00  0.66214873743E+02  0.66214873743E+02  0.00000000000E+00 0.  1.
         21   -1    0    0  501  502 -0.00000000000E+00 -0.00000000000E+00 -0.80801619400E+03  0.80801619400E+03  0.00000000000E+00 0.  1.
      99926    2    1    2    0    0  0.00000000000E+00  0.00000000000E+00 -0.74180132025E+03  0.87423106774E+03  0.46261297115E+03 0.  0.
      99925    2    3    3    0    0  0.94370097607E+02  0.41706517808E+02 -0.58023150268E+03  0.64532614643E+03  0.26292981879E+03 0.  0.
         25    1    4    4    0    0  0.84460635768E+02  0.28132939038E+02 -0.27360028267E+03  0.31373505388E+03  0.12509000000E+03 0.  0.
         25    1    4    4    0    0  0.99094618398E+01  0.13573578771E+02 -0.30663122001E+03  0.33159109255E+03  0.12509000000E+03 0.  0.
         25    1    3    3    0    0 -0.94370097607E+02 -0.41706517808E+02 -0.16156981757E+03  0.22890492131E+03  0.12509000000E+03 0.  0.
<mgrwt>
<rscale>  2 0.46261297E+03</rscale>
<asrwt>0</asrwt>
<pdfrwt beam="1">  1       21 0.97374817E-02 0.46261297E+03</pdfrwt>
<pdfrwt beam="2">  1       21 0.11882591E+00 0.46261297E+03</pdfrwt>
<totfact> 0.41816756E+04</totfact>
</mgrwt>
</event>
<event>
 7    0  0.4709932E-002  0.4459123E+03  0.7546771E-02  0.1028948E+00
         21   -1    0    0  502  501  0.00000000000E+00  0.00000000000E+00  0.24940669318E+03  0.24940669318E+03  0.00000000000E+00 0. -1.
         21   -1    0    0  501  502 -0.00000000000E+00 -0.00000000000E+00 -0.19931081448E+03  0.19931081448E+03  0.00000000000E+00 0. -1.
      99926    2    1    2    0    0 -0.35527136788E-14  0.00000000000E+00  0.50095878694E+02  0.44871750766E+03  0.44591232840E+03 0.  0.
      99925    2    3    3    0    0  0.22989378337E+02  0.92966234204E+02 -0.98084110477E+01  0.28017296089E+03  0.26311490050E+03 0.  0.
         25    1    3    3    0    0 -0.22989378337E+02 -0.92966234204E+02  0.59904289742E+02  0.16854454678E+03  0.12509000000E+03 0.  0.
         25    1    4    4    0    0  0.20094831922E+02  0.88597097522E+02 -0.11771978456E+00  0.15459873841E+03  0.12509000000E+03 0.  0.
         25    1    4    4    0    0  0.28945464144E+01  0.43691366823E+01 -0.96906912632E+01  0.12557422248E+03  0.12509000000E+03 0.  0.
<mgrwt>
<rscale>  2 0.44591233E+03</rscale>
<asrwt>0</asrwt>
<pdfrwt beam="1">  1       21 0.36677455E-01 0.44591233E+03</pdfrwt>
<pdfrwt beam="2">  1       21 0.29310414E-01 0.44591233E+03</pdfrwt>
<totfact> 0.74247523E+04</totfact>
</mgrwt>
</event>
<event>
 7    0  0.4709932E-002  0.4556089E+03  0.7546771E-02  0.1026062E+00
         21   -1    0    0  502  501  0.00000000000E+00  0.00000000000E+00  0.41083434805E+02  0.41083434805E+02  0.00000000000E+00 0. -1.
         21   -1    0    0  501  502 -0.00000000000E+00 -0.00000000000E+00 -0.12631580041E+04  0.12631580041E+04  0.00000000000E+00 0. -1.
      99926    2    1    2    0    0  0.00000000000E+00 -0.14210854715E-13 -0.12220745693E+04  0.13042414389E+04  0.45560890910E+03 0.  0.
      99925    2    3    3    0    0 -0.21712893430E+02 -0.97836100195E+02 -0.92364368587E+03  0.96549101083E+03  0.26270112544E+03 0.  0.
         25    1    4    4    0    0 -0.10374189901E+02 -0.18006079621E+02 -0.52141405216E+03  0.53661155840E+03  0.12509000000E+03 0.  0.
         25    1    3    3    0    0  0.21712893430E+02  0.97836100195E+02 -0.29843088347E+03  0.33875042812E+03  0.12509000000E+03 0.  0.
         25    1    4    4    0    0 -0.11338703530E+02 -0.79830020574E+02 -0.40222963371E+03  0.42887945243E+03  0.12509000000E+03 0.  0.
<mgrwt>
<rscale>  2 0.45560891E+03</rscale>
<asrwt>0</asrwt>
<pdfrwt beam="1">  1       21 0.60416821E-02 0.45560891E+03</pdfrwt>
<pdfrwt beam="2">  1       21 0.18575851E+00 0.45560891E+03</pdfrwt>
<totfact> 0.28854870E+04</totfact>
</mgrwt>
</event>
<event>
 7    0  0.4709932E-002  0.4324132E+03  0.7546771E-02  0.1033100E+00
         21   -1    0    0  502  501  0.00000000000E+00  0.00000000000E+00  0.45706807485E+03  0.45706807485E+03  0.00000000000E+00 0.  1.
         21   -1    0    0  501  502 -0.00000000000E+00 -0.00000000000E+00 -0.10227205821E+03  0.10227205821E+03  0.00000000000E+00 0.  1.
      99926    2    1    2    0    0  0.00000000000E+00  0.00000000000E+00  0.35479601664E+03  0.55934013306E+03  0.43241319479E+03 0.  0.
      99925    2    3    3    0    0  0.33154730143E+02 -0.66685787403E+02  0.29432987300E+03  0.40170164474E+03  0.26303594218E+03 0.  0.
         25    1    3    3    0    0 -0.33154730143E+02  0.66685787403E+02  0.60466143639E+02  0.15763848832E+03  0.12509000000E+03 0.  0.
         25    1    4    4    0    0  0.13727043049E+01 -0.28142832687E+02  0.19881264025E+03  0.23657531015E+03  0.12509000000E+03 0.  0.
         25    1    4    4    0    0  0.31782025838E+02 -0.38542954716E+02  0.95517232754E+02  0.16512633460E+03  0.12509000000E+03 0.  0.
<mgrwt>
<rscale>  2 0.43241319E+03</rscale>
<asrwt>0</asrwt>
<pdfrwt beam="1">  1       21 0.67215893E-01 0.43241319E+03</pdfrwt>
<pdfrwt beam="2">  1       21 0.15040009E-01 0.43241319E+03</pdfrwt>
<totfact> 0.73536759E+04</totfact>
</mgrwt>
</event>
<event>
 7    0  0.4709932E-002  0.4499614E+03  0.7546771E-02  0.1027734E+00
         21   -1    0    0  502  501  0.00000000000E+00  0.00000000000E+00  0.43227644894E+03  0.43227644894E+03  0.00000000000E+00 0.  1.
         21   -1    0    0  501  502 -0.00000000000E+00 -0.00000000000E+00 -0.11709245614E+03  0.11709245614E+03  0.00000000000E+00 0.  1.
      99926    2    1    2    0    0  0.71054273576E-14 -0.88817841970E-15  0.31518399280E+03  0.54936890509E+03  0.44996138119E+03 0.  0.
      99925    2    3    3    0    0 -0.46775219331E+02  0.72920438242E+01  0.80099529734E+02  0.27890022313E+03  0.26292262122E+03 0.  0.
         25    1    4    4    0    0 -0.63416318200E+02 -0.53408918669E+00  0.33874677263E+02  0.14428068660E+03  0.12509000000E+03 0.  0.
         25    1    4    4    0    0  0.16641098869E+02  0.78261330109E+01  0.46224852471E+02  0.13461953653E+03  0.12509000000E+03 0.  0.
         25    1    3    3    0    0  0.46775219331E+02 -0.72920438242E+01  0.23508446306E+03  0.27046868196E+03  0.12509000000E+03 0.  0.
<mgrwt>
<rscale>  2 0.44996138E+03</rscale>
<asrwt>0</asrwt>
<pdfrwt beam="1">  1       21 0.63570066E-01 0.44996138E+03</pdfrwt>
<pdfrwt beam="2">  1       21 0.17219479E-01 0.44996138E+03</pdfrwt>
<totfact> 0.64438950E+04</totfact>
</mgrwt>
</event>
<event>
 7    0  0.4709932E-002  0.4402102E+03  0.7546771E-02  0.1030682E+00
         21   -1    0    0  502  501  0.00000000000E+00  0.00000000000E+00  0.91772213651E+03  0.91772213651E+03  0.00000000000E+00 0. -1.
         21   -1    0    0  501  502 -0.00000000000E+00 -0.00000000000E+00 -0.52789665081E+02  0.52789665081E+02  0.00000000000E+00 0. -1.
      99926    2    1    2    0    0 -0.44408920985E-15  0.00000000000E+00  0.86493247143E+03  0.97051180159E+03  0.44021015083E+03 0.  0.
      99925    2    3    3    0    0  0.74118789596E+00  0.40096678992E+02  0.75042000215E+03  0.79624503268E+03  0.26318753659E+03 0.  0.
         25    1    4    4    0    0  0.27704736768E+02 -0.86551510640E+01  0.39550738670E+03  0.41583177502E+03  0.12509000000E+03 0.  0.
         25    1    3    3    0    0 -0.74118789596E+00 -0.40096678992E+02  0.11451246928E+03  0.17426676891E+03  0.12509000000E+03 0.  0.
         25    1    4    4    0    0 -0.26963548872E+02  0.48751830056E+02  0.35491261545E+03  0.38041325766E+03  0.12509000000E+03 0.  0.
<mgrwt>
<rscale>  2 0.44021015E+03</rscale>
<asrwt>0</asrwt>
<pdfrwt beam="1">  1       21 0.13495913E+00 0.44021015E+03</pdfrwt>
<pdfrwt beam="2">  1       21 0.77631866E-02 0.44021015E+03</pdfrwt>
<totfact> 0.45341049E+04</totfact>
</mgrwt>
</event>
<event>
 7    0  0.4709932E-002  0.4567650E+03  0.7546771E-02  0.1025724E+00
         21   -1    0    0  502  501  0.00000000000E+00  0.00000000000E+00  0.21702827885E+02  0.21702827885E+02  0.00000000000E+00 0.  1.
         21   -1    0    0  501  502 -0.00000000000E+00 -0.00000000000E+00 -0.24033069478E+04  0.24033069478E+04  0.00000000000E+00 0.  1.
      99926    2    1    2    0    0 -0.33306690739E-15  0.00000000000E+00 -0.23816041199E+04  0.24250097757E+04  0.45676495944E+03 0.  0.
      99925    2    3    3    0    0  0.96131266631E+00  0.10306149293E+03 -0.17653786984E+04  0.17878254431E+04  0.26293586831E+03 0.  0.
         25    1    4    4    0    0 -0.31112718044E+02  0.56619322663E+02 -0.73659090306E+03  0.74992493991E+03  0.12509000000E+03 0.  0.
         25    1    3    3    0    0 -0.96131266631E+00 -0.10306149293E+03 -0.61622542152E+03  0.63718433257E+03  0.12509000000E+03 0.  0.
         25    1    4    4    0    0  0.32074030710E+02  0.46442170269E+02 -0.10287877953E+04  0.10379005032E+04  0.12509000000E+03 0.  0.
<mgrwt>
<rscale>  2 0.45676496E+03</rscale>
<asrwt>0</asrwt>
<pdfrwt beam="1">  1       21 0.31915952E-02 0.45676496E+03</pdfrwt>
<pdfrwt beam="2">  1       21 0.35342717E+00 0.45676496E+03</pdfrwt>
<totfact> 0.78219494E+03</totfact>
</mgrwt>
</event>
<event>
 7    0  0.4709932E-002  0.4573700E+03  0.7546771E-02  0.1025547E+00
         21   -1    0    0  502  501  0.00000000000E+00  0.00000000000E+00  0.24518196874E+03  0.24518196874E+03  0.00000000000E+00 0. -1.
         21   -1    0    0  501  502 -0.00000000000E+00 -0.00000000000E+00 -0.21329806809E+03  0.21329806809E+03  0.00000000000E+00 0. -1.
      99926    2    1    2    0    0 -0.88817841970E-15 -0.14210854715E-13  0.31883900654E+02  0.45848003683E+03  0.45737004827E+03 0.  0.
      99925    2    3    3    0    0 -0.70119583700E+01 -0.96948446825E+02 -0.42029726501E+02  0.28366899232E+03  0.26316046511E+03 0.  0.
         25    1    3    3    0    0  0.70119583700E+01  0.96948446825E+02  0.73913627155E+02  0.17481104451E+03  0.12509000000E+03 0.  0.
         25    1    4    4    0    0 -0.34610674636E+02 -0.63970016807E+02 -0.44449496594E+02  0.15137148905E+03  0.12509000000E+03 0.  0.
         25    1    4    4    0    0  0.27598716266E+02 -0.32978430018E+02  0.24197700938E+01  0.13229750328E+03  0.12509000000E+03 0.  0.
<mgrwt>
<rscale>  2 0.45737005E+03</rscale>
<asrwt>0</asrwt>
<pdfrwt beam="1">  1       21 0.36056172E-01 0.45737005E+03</pdfrwt>
<pdfrwt beam="2">  1       21 0.31367363E-01 0.45737005E+03</pdfrwt>
<totfact> 0.67015374E+04</totfact>
</mgrwt>
</event>
<event>
 7    0  0.4709932E-002  0.4447583E+03  0.7546771E-02  0.1029297E+00
         21   -1    0    0  502  501  0.00000000000E+00  0.00000000000E+00  0.15491832749E+03  0.15491832749E+03  0.00000000000E+00 0.  1.
         21   -1    0    0  501  502 -0.00000000000E+00 -0.00000000000E+00 -0.31921647686E+03  0.31921647686E+03  0.00000000000E+00 0.  1.
      99926    2    1    2    0    0  0.00000000000E+00  0.00000000000E+00 -0.16429814937E+03  0.47413480436E+03  0.44475828358E+03 0.  0.
      99925    2    3    3    0    0  0.11628132604E+02 -0.53776812215E+02 -0.19742140898E+03  0.33352250964E+03  0.26312524149E+03 0.  0.
         25    1    4    4    0    0 -0.99158352553E+01 -0.24352944974E+00 -0.60546204311E+02  0.13932599920E+03  0.12509000000E+03 0.  0.
         25    1    4    4    0    0  0.21543967860E+02 -0.53533282765E+02 -0.13687520467E+03  0.19419651044E+03  0.12509000000E+03 0.  0.
         25    1    3    3    0    0 -0.11628132604E+02  0.53776812215E+02  0.33123259605E+02  0.14061229472E+03  0.12509000000E+03 0.  0.
<mgrwt>
<rscale>  2 0.44475828E+03</rscale>
<asrwt>0</asrwt>
<pdfrwt beam="1">  1       21 0.22782107E-01 0.44475828E+03</pdfrwt>
<pdfrwt beam="2">  1       21 0.46943600E-01 0.44475828E+03</pdfrwt>
<totfact> 0.72876094E+04</totfact>
</mgrwt>
</event>
<event>
 7    0  0.4709932E-002  0.4542336E+03  0.7546771E-02  0.1026467E+00
         21   -1    0    0  502  501  0.00000000000E+00  0.00000000000E+00  0.19488993648E+04  0.19488993648E+04  0.00000000000E+00 0. -1.
         21   -1    0    0  501  502 -0.00000000000E+00 -0.00000000000E+00 -0.26467265888E+02  0.26467265888E+02  0.00000000000E+00 0. -1.
      99926    2    1    2    0    0  0.00000000000E+00  0.00000000000E+00  0.19224320989E+04  0.19753666306E+04  0.45423358606E+03 0.  0.
      99925    2    3    3    0    0 -0.11188147680E+03  0.99585815949E+01  0.12327416280E+04  0.12654813639E+04  0.26301049948E+03 0.  0.
         25    1    4    4    0    0 -0.29866098024E+02  0.37302104739E+02  0.58591055520E+03  0.60101756848E+03  0.12509000000E+03 0.  0.
         25    1    3    3    0    0  0.11188147680E+03 -0.99585815949E+01  0.68969047089E+03  0.70988526674E+03  0.12509000000E+03 0.  0.
         25    1    4    4    0    0 -0.82015378780E+02 -0.27343523144E+02  0.64683107277E+03  0.66446379542E+03  0.12509000000E+03 0.  0.
<mgrwt>
<rscale>  2 0.45423359E+03</rscale>
<asrwt>0</asrwt>
<pdfrwt beam="1">  1       21 0.28660275E+00 0.45423359E+03</pdfrwt>
<pdfrwt beam="2">  1       21 0.38922463E-02 0.45423359E+03</pdfrwt>
<totfact> 0.14200480E+04</totfact>
</mgrwt>
</event>
<event>
 7    0  0.4709932E-002  0.4720174E+03  0.7546771E-02  0.1021352E+00
         21   -1    0    0  502  501  0.00000000000E+00  0.00000000000E+00  0.23935799978E+03  0.23935799978E+03  0.00000000000E+00 0.  1.
         21   -1    0    0  501  502 -0.00000000000E+00 -0.00000000000E+00 -0.23270629672E+03  0.23270629672E+03  0.00000000000E+00 0.  1.
      99926    2    1    2    0    0  0.00000000000E+00  0.00000000000E+00  0.66517030618E+01  0.47206429650E+03  0.47201743070E+03 0.  0.
      99925    2    3    3    0    0 -0.95540135758E+01  0.89430199011E+02  0.95543829196E+02  0.29419255097E+03  0.26330893277E+03 0.  0.
         25    1    4    4    0    0  0.32737325567E+02  0.58978732971E+02  0.58679214594E+02  0.15375624135E+03  0.12509000000E+03 0.  0.
         25    1    4    4    0    0 -0.42291339142E+02  0.30451466040E+02  0.36864614602E+02  0.14043630962E+03  0.12509000000E+03 0.  0.
         25    1    3    3    0    0  0.95540135758E+01 -0.89430199011E+02 -0.88892126134E+02  0.17787174553E+03  0.12509000000E+03 0.  0.
<mgrwt>
<rscale>  2 0.47201743E+03</rscale>
<asrwt>0</asrwt>
<pdfrwt beam="1">  1       21 0.35199706E-01 0.47201743E+03</pdfrwt>
<pdfrwt beam="2">  1       21 0.34221514E-01 0.47201743E+03</pdfrwt>
<totfact> 0.58900230E+04</totfact>
</mgrwt>
</event>
<event>
 7    0  0.4709932E-002  0.4531576E+03  0.7546771E-02  0.1026785E+00
         21   -1    0    0  502  501  0.00000000000E+00  0.00000000000E+00  0.16978290113E+03  0.16978290113E+03  0.00000000000E+00 0.  1.
         21   -1    0    0  501  502 -0.00000000000E+00 -0.00000000000E+00 -0.30237404600E+03  0.30237404600E+03  0.00000000000E+00 0.  1.
      99926    2    1    2    0    0  0.00000000000E+00  0.00000000000E+00 -0.13259114487E+03  0.47215694713E+03  0.45315755651E+03 0.  0.
      99925    2    3    3    0    0 -0.40041552384E+02  0.75073716923E+02 -0.15872890403E+03  0.31863144618E+03  0.26285308564E+03 0.  0.
         25    1    4    4    0    0  0.16897291123E+01  0.27214327481E+01 -0.60536753702E+02  0.13900528058E+03  0.12509000000E+03 0.  0.
         25    1    4    4    0    0 -0.41731281497E+02  0.72352284175E+02 -0.98192150325E+02  0.17962616559E+03  0.12509000000E+03 0.  0.
         25    1    3    3    0    0  0.40041552384E+02 -0.75073716923E+02  0.26137759153E+02  0.15352550096E+03  0.12509000000E+03 0.  0.
<mgrwt>
<rscale>  2 0.45315756E+03</rscale>
<asrwt>0</asrwt>
<pdfrwt beam="1">  1       21 0.24968074E-01 0.45315756E+03</pdfrwt>
<pdfrwt beam="2">  1       21 0.44466772E-01 0.45315756E+03</pdfrwt>
<totfact> 0.68268265E+04</totfact>
</mgrwt>
</event>
<event>
 7    0  0.4709932E-002  0.4524331E+03  0.7546771E-02  0.1026999E+00
         21   -1    0    0  502  501  0.00000000000E+00  0.00000000000E+00  0.23145489008E+03  0.23145489008E+03  0.00000000000E+00 0.  1.
         21   -1    0    0  501  502 -0.00000000000E+00 -0.00000000000E+00 -0.22109676281E+03  0.22109676281E+03  0.00000000000E+00 0.  1.
      99926    2    1    2    0    0 -0.71054273576E-14  0.00000000000E+00  0.10358127268E+02  0.45255165289E+03  0.45243309752E+03 0.  0.
      99925    2    3    3    0    0 -0.54262223962E+02  0.85248412311E+02 -0.38747699496E+02  0.28441310563E+03  0.26301663386E+03 0.  0.
         25    1    4    4    0    0 -0.52354455741E+01  0.61015374331E+02  0.95407804654E+01  0.13960236526E+03  0.12509000000E+03 0.  0.
         25    1    3    3    0    0  0.54262223962E+02 -0.85248412311E+02  0.49105826763E+02  0.16813854726E+03  0.12509000000E+03 0.  0.
         25    1    4    4    0    0 -0.49026778388E+02  0.24233037981E+02 -0.48288479961E+02  0.14481074037E+03  0.12509000000E+03 0.  0.
<mgrwt>
<rscale>  2 0.45243310E+03</rscale>
<asrwt>0</asrwt>
<pdfrwt beam="1">  1       21 0.34037484E-01 0.45243310E+03</pdfrwt>
<pdfrwt beam="2">  1       21 0.32514230E-01 0.45243310E+03</pdfrwt>
<totfact> 0.70151343E+04</totfact>
</mgrwt>
</event>
<event>
 7    0  0.4709932E-002  0.4352524E+03  0.7546771E-02  0.1032213E+00
         21   -1    0    0  502  501  0.00000000000E+00  0.00000000000E+00  0.18296902061E+03  0.18296902061E+03  0.00000000000E+00 0. -1.
         21   -1    0    0  501  502 -0.00000000000E+00 -0.00000000000E+00 -0.25884801508E+03  0.25884801508E+03  0.00000000000E+00 0. -1.
      99926    2    1    2    0    0  0.00000000000E+00  0.00000000000E+00 -0.75878994477E+02  0.44181703569E+03  0.43525242242E+03 0.  0.
      99925    2    3    3    0    0  0.54873382766E+02 -0.50636103265E+02  0.81422814207E+01  0.27364395225E+03  0.26313421056E+03 0.  0.
         25    1    4    4    0    0  0.65240324824E+02 -0.99075087229E+01  0.84776160447E+01  0.14168216820E+03  0.12509000000E+03 0.  0.
         25    1    3    3    0    0 -0.54873382766E+02  0.50636103265E+02 -0.84021275898E+02  0.16817308344E+03  0.12509000000E+03 0.  0.
         25    1    4    4    0    0 -0.10366942058E+02 -0.40728594542E+02 -0.33533462398E+00  0.13196178405E+03  0.12509000000E+03 0.  0.
<mgrwt>
<rscale>  2 0.43525242E+03</rscale>
<asrwt>0</asrwt>
<pdfrwt beam="1">  1       21 0.26907209E-01 0.43525242E+03</pdfrwt>
<pdfrwt beam="2">  1       21 0.38065885E-01 0.43525242E+03</pdfrwt>
<totfact> 0.81644110E+04</totfact>
</mgrwt>
</event>
<event>
 7    0  0.4709932E-002  0.4516295E+03  0.7546771E-02  0.1027237E+00
         21   -1    0    0  502  501  0.00000000000E+00  0.00000000000E+00  0.48944908525E+03  0.48944908525E+03  0.00000000000E+00 0. -1.
         21   -1    0    0  501  502 -0.00000000000E+00 -0.00000000000E+00 -0.10418304197E+03  0.10418304197E+03  0.00000000000E+00 0. -1.
      99926    2    1    2    0    0 -0.35527136788E-14  0.14210854715E-13  0.38526604329E+03  0.59363212722E+03  0.45162947020E+03 0.  0.
      99925    2    3    3    0    0  0.20879480233E+02  0.93091996864E+02  0.31512248361E+03  0.42138318052E+03  0.26298200047E+03 0.  0.
         25    1    4    4    0    0 -0.18361783490E+02  0.28192710641E+02  0.11312253922E+03  0.17197732701E+03  0.12509000000E+03 0.  0.
         25    1    3    3    0    0 -0.20879480233E+02 -0.93091996864E+02  0.70143559680E+02  0.17224894670E+03  0.12509000000E+03 0.  0.
         25    1    4    4    0    0  0.39241263723E+02  0.64899286222E+02  0.20199994439E+03  0.24940585351E+03  0.12509000000E+03 0.  0.
<mgrwt>
<rscale>  2 0.45162947E+03</rscale>
<asrwt>0</asrwt>
<pdfrwt beam="1">  1       21 0.71977806E-01 0.45162947E+03</pdfrwt>
<pdfrwt beam="2">  1       21 0.15321036E-01 0.45162947E+03</pdfrwt>
<totfact> 0.60671922E+04</totfact>
</mgrwt>
</event>
<event>
 7    0  0.4709932E-002  0.4563431E+03  0.7546771E-02  0.1025847E+00
         21   -1    0    0  502  501  0.00000000000E+00  0.00000000000E+00  0.11172834065E+03  0.11172834065E+03  0.00000000000E+00 0. -1.
         21   -1    0    0  501  502 -0.00000000000E+00 -0.00000000000E+00 -0.46597186687E+03  0.46597186687E+03  0.00000000000E+00 0. -1.
      99926    2    1    2    0    0  0.00000000000E+00  0.14210854715E-13 -0.35424352622E+03  0.57770020752E+03  0.45634313175E+03 0.  0.
      99925    2    3    3    0    0  0.35494785151E+02 -0.10862518079E+03 -0.22977179002E+03  0.36746217364E+03  0.26300962700E+03 0.  0.
         25    1    3    3    0    0 -0.35494785151E+02  0.10862518079E+03 -0.12447173620E+03  0.21023803387E+03  0.12509000000E+03 0.  0.
         25    1    4    4    0    0  0.11567914323E+02 -0.26646852275E+02 -0.14576214822E+03  0.19426266582E+03  0.12509000000E+03 0.  0.
         25    1    4    4    0    0  0.23926870828E+02 -0.81978328517E+02 -0.84009641798E+02  0.17319950782E+03  0.12509000000E+03 0.  0.
<mgrwt>
<rscale>  2 0.45634313E+03</rscale>
<asrwt>0</asrwt>
<pdfrwt beam="1">  1       21 0.16430639E-01 0.45634313E+03</pdfrwt>
<pdfrwt beam="2">  1       21 0.68525273E-01 0.45634313E+03</pdfrwt>
<totfact> 0.59438606E+04</totfact>
</mgrwt>
</event>
<event>
 7    0  0.4709932E-002  0.4461522E+03  0.7546771E-02  0.1028876E+00
         21   -1    0    0  502  501  0.00000000000E+00  0.00000000000E+00  0.42352116452E+02  0.42352116452E+02  0.00000000000E+00 0.  1.
         21   -1    0    0  501  502 -0.00000000000E+00 -0.00000000000E+00 -0.11749812626E+04  0.11749812626E+04  0.00000000000E+00 0.  1.
      99926    2    1    2    0    0  0.88817841970E-15  0.00000000000E+00 -0.11326291461E+04  0.12173333790E+04  0.44615218597E+03 0.  0.
      99925    2    3    3    0    0  0.75961058665E+01 -0.67764526272E+02 -0.50256070571E+03  0.57135855015E+03  0.26312278133E+03 0.  0.
         25    1    4    4    0    0  0.32533843060E+02 -0.48224326874E+02 -0.31291018660E+03  0.34197124093E+03  0.12509000000E+03 0.  0.
         25    1    3    3    0    0 -0.75961058665E+01  0.67764526272E+02 -0.63006844040E+03  0.64597482887E+03  0.12509000000E+03 0.  0.
         25    1    4    4    0    0 -0.24937737194E+02 -0.19540199398E+02 -0.18965051911E+03  0.22938730921E+03  0.12509000000E+03 0.  0.
<mgrwt>
<rscale>  2 0.44615219E+03</rscale>
<asrwt>0</asrwt>
<pdfrwt beam="1">  1       21 0.62282529E-02 0.44615219E+03</pdfrwt>
<pdfrwt beam="2">  1       21 0.17279135E+00 0.44615219E+03</pdfrwt>
<totfact> 0.33887024E+04</totfact>
</mgrwt>
</event>
<event>
 7    0  0.4709932E-002  0.4288396E+03  0.7546771E-02  0.1034227E+00
         21   -1    0    0  502  501  0.00000000000E+00  0.00000000000E+00  0.99118616505E+03  0.99118616505E+03  0.00000000000E+00 0. -1.
         21   -1    0    0  501  502 -0.00000000000E+00 -0.00000000000E+00 -0.46384681319E+02  0.46384681319E+02  0.00000000000E+00 0. -1.
      99926    2    1    2    0    0  0.14210854715E-13  0.00000000000E+00  0.94480148373E+03  0.10375708464E+04  0.42883961754E+03 0.  0.
      99925    2    3    3    0    0  0.82996855363E+02 -0.16097448764E+02  0.56863707550E+03  0.63223792644E+03  0.26311416940E+03 0.  0.
         25    1    3    3    0    0 -0.82996855363E+02  0.16097448764E+02  0.37616440823E+03  0.40533291993E+03  0.12509000000E+03 0.  0.
         25    1    4    4    0    0  0.80310286461E+02  0.83139349427E+01  0.30739287013E+03  0.34155050627E+03  0.12509000000E+03 0.  0.
         25    1    4    4    0    0  0.26865689013E+01 -0.24411383707E+02  0.26124420537E+03  0.29068742017E+03  0.12509000000E+03 0.  0.
<mgrwt>
<rscale>  2 0.42883962E+03</rscale>
<asrwt>0</asrwt>
<pdfrwt beam="1">  1       21 0.14576266E+00 0.42883962E+03</pdfrwt>
<pdfrwt beam="2">  1       21 0.68212773E-02 0.42883962E+03</pdfrwt>
<totfact> 0.46538749E+04</totfact>
</mgrwt>
</event>
<event>
 7    0  0.4709932E-002  0.4617780E+03  0.7546771E-02  0.1024267E+00
         21   -1    0    0  502  501  0.00000000000E+00  0.00000000000E+00  0.60311902831E+03  0.60311902831E+03  0.00000000000E+00 0. -1.
         21   -1    0    0  501  502 -0.00000000000E+00 -0.00000000000E+00 -0.88390058742E+02  0.88390058742E+02  0.00000000000E+00 0. -1.
      99926    2    1    2    0    0 -0.35527136788E-14  0.00000000000E+00  0.51472896956E+03  0.69150908705E+03  0.46177798276E+03 0.  0.
      99925    2    3    3    0    0  0.23635597193E+02  0.91979982952E+02  0.43035032085E+03  0.51322217452E+03  0.26301453011E+03 0.  0.
         25    1    4    4    0    0  0.50105320299E+01  0.65455812357E+02  0.28917110764E+03  0.32183381798E+03  0.12509000000E+03 0.  0.
         25    1    4    4    0    0  0.18625065163E+02  0.26524170594E+02  0.14117921321E+03  0.19138835654E+03  0.12509000000E+03 0.  0.
         25    1    3    3    0    0 -0.23635597193E+02 -0.91979982952E+02  0.84378648718E+02  0.17828691253E+03  0.12509000000E+03 0.  0.
<mgrwt>
<rscale>  2 0.46177798E+03</rscale>
<asrwt>0</asrwt>
<pdfrwt beam="1">  1       21 0.88693972E-01 0.46177798E+03</pdfrwt>
<pdfrwt beam="2">  1       21 0.12998538E-01 0.46177798E+03</pdfrwt>
<totfact> 0.50611125E+04</totfact>
</mgrwt>
</event>
<event>
 7    0  0.4709932E-002  0.4453829E+03  0.7546771E-02  0.1029108E+00
         21   -1    0    0  502  501  0.00000000000E+00  0.00000000000E+00  0.24863566086E+03  0.24863566086E+03  0.00000000000E+00 0. -1.
         21   -1    0    0  501  502 -0.00000000000E+00 -0.00000000000E+00 -0.19945439854E+03  0.19945439854E+03  0.00000000000E+00 0. -1.
      99926    2    1    2    0    0  0.00000000000E+00  0.35527136788E-14  0.49181262312E+02  0.44809005940E+03  0.44538287436E+03 0.  0.
      99925    2    3    3    0    0 -0.29753975030E+02 -0.25096461304E+02  0.12875446112E+03  0.29481079313E+03  0.26233673225E+03 0.  0.
         25    1    3    3    0    0  0.29753975030E+02  0.25096461304E+02 -0.79573198804E+02  0.15327926627E+03  0.12509000000E+03 0.  0.
         25    1    4    4    0    0  0.97128269839E+01  0.11546509860E+02  0.84102279117E+02  0.15148716893E+03  0.12509000000E+03 0.  0.
         25    1    4    4    0    0 -0.39466802013E+02 -0.36642971165E+02  0.44652181998E+02  0.14332362420E+03  0.12509000000E+03 0.  0.
<mgrwt>
<rscale>  2 0.44538287E+03</rscale>
<asrwt>0</asrwt>
<pdfrwt beam="1">  1       21 0.36564068E-01 0.44538287E+03</pdfrwt>
<pdfrwt beam="2">  1       21 0.29331529E-01 0.44538287E+03</pdfrwt>
<totfact> 0.74618113E+04</totfact>
</mgrwt>
</event>
<event>
 7    0  0.4709932E-002  0.4537993E+03  0.7546771E-02  0.1026595E+00
         21   -1    0    0  502  501  0.00000000000E+00  0.00000000000E+00  0.42320413809E+02  0.42320413809E+02  0.00000000000E+00 0.  1.
         21   -1    0    0  501  502 -0.00000000000E+00 -0.00000000000E+00 -0.12165155624E+04  0.12165155624E+04  0.00000000000E+00 0.  1.
      99926    2    1    2    0    0  0.00000000000E+00 -0.14210854715E-13 -0.11741951486E+04  0.12588359762E+04  0.45379925961E+03 0.  0.
      99925    2    3    3    0    0 -0.54713173362E+02  0.89694703777E+02 -0.63172811514E+03  0.69230560482E+03  0.26299803760E+03 0.  0.
         25    1    4    4    0    0 -0.46754242216E+02  0.94913680903E+01 -0.27826353865E+03  0.30879467333E+03  0.12509000000E+03 0.  0.
         25    1    4    4    0    0 -0.79589311461E+01  0.80203335687E+02 -0.35346457649E+03  0.38351093149E+03  0.12509000000E+03 0.  0.
         25    1    3    3    0    0  0.54713173362E+02 -0.89694703777E+02 -0.54246703342E+03  0.56653037136E+03  0.12509000000E+03 0.  0.
<mgrwt>
<rscale>  2 0.45379926E+03</rscale>
<asrwt>0</asrwt>
<pdfrwt beam="1">  1       21 0.62235913E-02 0.45379926E+03</pdfrwt>
<pdfrwt beam="2">  1       21 0.17889932E+00 0.45379926E+03</pdfrwt>
<totfact> 0.30619175E+04</totfact>
</mgrwt>
</event>
<event>
 7    0  0.4709932E-002  0.4663021E+03  0.7546771E-02  0.1022969E+00
         21   -1    0    0  502  501  0.00000000000E+00  0.00000000000E+00  0.38588750924E+03  0.38588750924E+03  0.00000000000E+00 0.  1.
         21   -1    0    0  501  502 -0.00000000000E+00 -0.00000000000E+00 -0.14086855491E+03  0.14086855491E+03  0.00000000000E+00 0.  1.
      99926    2    1    2    0    0  0.00000000000E+00  0.00000000000E+00  0.24501895433E+03  0.52675606414E+03  0.46630211573E+03 0.  0.
      99925    2    3    3    0    0  0.10075574088E+03  0.66290988464E+02  0.12371489043E+03  0.31484004660E+03  0.26319701054E+03 0.  0.
         25    1    4    4    0    0  0.17947523647E+02  0.32273447382E+02  0.27165645445E+02  0.13322600873E+03  0.12509000000E+03 0.  0.
         25    1    4    4    0    0  0.82808217236E+02  0.34017541081E+02  0.96549244989E+02  0.18161403787E+03  0.12509000000E+03 0.  0.
         25    1    3    3    0    0 -0.10075574088E+03 -0.66290988464E+02  0.12130406389E+03  0.21191601754E+03  0.12509000000E+03 0.  0.
<mgrwt>
<rscale>  2 0.46630212E+03</rscale>
<asrwt>0</asrwt>
<pdfrwt beam="1">  1       21 0.56748163E-01 0.46630212E+03</pdfrwt>
<pdfrwt beam="2">  1       21 0.20715964E-01 0.46630212E+03</pdfrwt>
<totfact> 0.58046984E+04</totfact>
</mgrwt>
</event>
<event>
 7    0  0.4709932E-002  0.4526037E+03  0.7546771E-02  0.1026948E+00
         21   -1    0    0  502  501  0.00000000000E+00  0.00000000000E+00  0.16710524407E+03  0.16710524407E+03  0.00000000000E+00 0.  1.
         21   -1    0    0  501  502 -0.00000000000E+00 -0.00000000000E+00 -0.30646874139E+03  0.30646874139E+03  0.00000000000E+00 0.  1.
      99926    2    1    2    0    0  0.00000000000E+00  0.00000000000E+00 -0.13936349732E+03  0.47357398545E+03  0.45260372879E+03 0.  0.
      99925    2    3    3    0    0 -0.10784574686E+03 -0.22075308633E+02 -0.77229095602E+02  0.29573637317E+03  0.26339636452E+03 0.  0.
         25    1    4    4    0    0 -0.60584480353E+02  0.18921443004E+02 -0.10203295267E+02  0.14064179891E+03  0.12509000000E+03 0.  0.
         25    1    3    3    0    0  0.10784574686E+03  0.22075308633E+02 -0.62134401715E+02  0.17783761228E+03  0.12509000000E+03 0.  0.
         25    1    4    4    0    0 -0.47261266502E+02 -0.40996751637E+02 -0.67025800335E+02  0.15509457427E+03  0.12509000000E+03 0.  0.
<mgrwt>
<rscale>  2 0.45260373E+03</rscale>
<asrwt>0</asrwt>
<pdfrwt beam="1">  1       21 0.24574301E-01 0.45260373E+03</pdfrwt>
<pdfrwt beam="2">  1       21 0.45068933E-01 0.45260373E+03</pdfrwt>
<totfact> 0.68463628E+04</totfact>
</mgrwt>
</event>
<event>
 7    0  0.4709932E-002  0.4635863E+03  0.7546771E-02  0.1023746E+00
         21   -1    0    0  502  501  0.00000000000E+00  0.00000000000E+00  0.15315866159E+04  0.15315866159E+04  0.00000000000E+00 0.  1.
         21   -1    0    0  501  502 -0.00000000000E+00 -0.00000000000E+00 -0.35080005305E+02  0.35080005305E+02  0.00000000000E+00 0.  1.
      99926    2    1    2    0    0  0.71054273576E-14  0.00000000000E+00  0.14965066106E+04  0.15666666212E+04  0.46358630960E+03 0.  0.
      99925    2    3    3    0    0 -0.59617924495E+02  0.37926307381E+02  0.12667120547E+04  0.12956578617E+04  0.26301551918E+03 0.  0.
         25    1    4    4    0    0 -0.64857102585E+02  0.95592553560E+00  0.70967198309E+03  0.72352552770E+03  0.12509000000E+03 0.  0.
         25    1    3    3    0    0  0.59617924495E+02 -0.37926307381E+02  0.22979455587E+03  0.27100875949E+03  0.12509000000E+03 0.  0.
         25    1    4    4    0    0  0.52391780903E+01  0.36970381846E+02  0.55704007162E+03  0.57213233400E+03  0.12509000000E+03 0.  0.
<mgrwt>
<rscale>  2 0.46358631E+03</rscale>
<asrwt>0</asrwt>
<pdfrwt beam="1">  1       21 0.22523328E+00 0.46358631E+03</pdfrwt>
<pdfrwt beam="2">  1       21 0.51588253E-02 0.46358631E+03</pdfrwt>
<totfact> 0.20771560E+04</totfact>
</mgrwt>
</event>
<event>
 7    0  0.4709932E-002  0.4573434E+03  0.7546771E-02  0.1025555E+00
         21   -1    0    0  502  501  0.00000000000E+00  0.00000000000E+00  0.26015020694E+03  0.26015020694E+03  0.00000000000E+00 0. -1.
         21   -1    0    0  501  502 -0.00000000000E+00 -0.00000000000E+00 -0.20100212413E+03  0.20100212413E+03  0.00000000000E+00 0. -1.
      99926    2    1    2    0    0 -0.35527136788E-14  0.71054273576E-14  0.59148082804E+02  0.46115233107E+03  0.45734339041E+03 0.  0.
      99925    2    3    3    0    0  0.21891742569E+02 -0.60320535193E+02  0.13388551401E+03  0.30193233521E+03  0.26290680635E+03 0.  0.
         25    1    4    4    0    0  0.35064272837E+02 -0.40711605620E+02  0.34539694269E+02  0.14045439346E+03  0.12509000000E+03 0.  0.
         25    1    3    3    0    0 -0.21891742569E+02  0.60320535193E+02 -0.74737431207E+02  0.15921999586E+03  0.12509000000E+03 0.  0.
         25    1    4    4    0    0 -0.13172530268E+02 -0.19608929573E+02  0.99345819742E+02  0.16147794175E+03  0.12509000000E+03 0.  0.
<mgrwt>
<rscale>  2 0.45734339E+03</rscale>
<asrwt>0</asrwt>
<pdfrwt beam="1">  1       21 0.38257383E-01 0.45734339E+03</pdfrwt>
<pdfrwt beam="2">  1       21 0.29559136E-01 0.45734339E+03</pdfrwt>
<totfact> 0.66838797E+04</totfact>
</mgrwt>
</event>
<event>
 7    0  0.4709932E-002  0.4579963E+03  0.7546771E-02  0.1025364E+00
         21   -1    0    0  502  501  0.00000000000E+00  0.00000000000E+00  0.10792912768E+04  0.10792912768E+04  0.00000000000E+00 0. -1.
         21   -1    0    0  501  502 -0.00000000000E+00 -0.00000000000E+00 -0.48587571863E+02  0.48587571863E+02  0.00000000000E+00 0. -1.
      99926    2    1    2    0    0 -0.55511151231E-16 -0.71054273576E-14  0.10307037049E+04  0.11278788487E+04  0.45799625533E+03 0.  0.
      99925    2    3    3    0    0 -0.43284904515E+00 -0.51888597936E+02  0.39150456082E+03  0.47449100986E+03  0.26300814311E+03 0.  0.
         25    1    4    4    0    0 -0.14027230436E+02 -0.59779180218E+02  0.17207279313E+03  0.22142011611E+03  0.12509000000E+03 0.  0.
         25    1    3    3    0    0  0.43284904515E+00  0.51888597936E+02  0.63919914413E+03  0.65338783882E+03  0.12509000000E+03 0.  0.
         25    1    4    4    0    0  0.13594381391E+02  0.78905822812E+01  0.21943176769E+03  0.25307089375E+03  0.12509000000E+03 0.  0.
<mgrwt>
<rscale>  2 0.45799626E+03</rscale>
<asrwt>0</asrwt>
<pdfrwt beam="1">  1       21 0.15871929E+00 0.45799626E+03</pdfrwt>
<pdfrwt beam="2">  1       21 0.71452318E-02 0.45799626E+03</pdfrwt>
<totfact> 0.33734724E+04</totfact>
</mgrwt>
</event>
<event>
 7    0  0.4709932E-002  0.4493865E+03  0.7546771E-02  0.1027905E+00
         21   -1    0    0  502  501  0.00000000000E+00  0.00000000000E+00  0.32920720012E+03  0.32920720012E+03  0.00000000000E+00 0.  1.
         21   -1    0    0  501  502 -0.00000000000E+00 -0.00000000000E+00 -0.15335952057E+03  0.15335952057E+03  0.00000000000E+00 0.  1.
      99926    2    1    2    0    0  0.35527136788E-14  0.14210854715E-13  0.17584767954E+03  0.48256672069E+03  0.44938650793E+03 0.  0.
      99925    2    3    3    0    0  0.18607582530E+02  0.66009037896E+02  0.21905071101E+02  0.27268754114E+03  0.26301183955E+03 0.  0.
         25    1    4    4    0    0  0.48688933428E+02  0.24340499258E+02  0.15530968027E+02  0.13730182523E+03  0.12509000000E+03 0.  0.
         25    1    3    3    0    0 -0.18607582530E+02 -0.66009037896E+02  0.15394260844E+03  0.20987917954E+03  0.12509000000E+03 0.  0.
         25    1    4    4    0    0 -0.30081350898E+02  0.41668538638E+02  0.63741030740E+01  0.13538571592E+03  0.12509000000E+03 0.  0.
<mgrwt>
<rscale>  2 0.44938651E+03</rscale>
<asrwt>0</asrwt>
<pdfrwt beam="1">  1       21 0.48412824E-01 0.44938651E+03</pdfrwt>
<pdfrwt beam="2">  1       21 0.22552871E-01 0.44938651E+03</pdfrwt>
<totfact> 0.69562292E+04</totfact>
</mgrwt>
</event>
<event>
 7    0  0.4709932E-002  0.4495682E+03  0.7546771E-02  0.1027851E+00
         21   -1    0    0  502  501  0.00000000000E+00  0.00000000000E+00  0.28443045089E+02  0.28443045089E+02  0.00000000000E+00 0. -1.
         21   -1    0    0  501  502 -0.00000000000E+00 -0.00000000000E+00 -0.17764587848E+04  0.17764587848E+04  0.00000000000E+00 0. -1.
      99926    2    1    2    0    0  0.00000000000E+00  0.71054273576E-14 -0.17480157397E+04  0.18049018299E+04  0.44956822536E+03 0.  0.
      99925    2    3    3    0    0  0.79137791550E+02 -0.55352846134E+02 -0.12988287288E+04  0.13287262252E+04  0.26311705980E+03 0.  0.
         25    1    3    3    0    0 -0.79137791550E+02  0.55352846134E+02 -0.44918701091E+03  0.47617560468E+03  0.12509000000E+03 0.  0.
         25    1    4    4    0    0  0.33800558666E+02  0.97632042435E+01 -0.69060557876E+03  0.70272424993E+03  0.12509000000E+03 0.  0.
         25    1    4    4    0    0  0.45337232884E+02 -0.65116050378E+02 -0.60822315004E+03  0.62600197527E+03  0.12509000000E+03 0.  0.
<mgrwt>
<rscale>  2 0.44956823E+03</rscale>
<asrwt>0</asrwt>
<pdfrwt beam="1">  1       21 0.41827995E-02 0.44956823E+03</pdfrwt>
<pdfrwt beam="2">  1       21 0.26124402E+00 0.44956823E+03</pdfrwt>
<totfact> 0.17908691E+04</totfact>
</mgrwt>
</event>
<event>
 7    0  0.4709932E-002  0.4598839E+03  0.7546771E-02  0.1024815E+00
         21   -1    0    0  502  501  0.00000000000E+00  0.00000000000E+00  0.98265417076E+02  0.98265417076E+02  0.00000000000E+00 0. -1.
         21   -1    0    0  501  502 -0.00000000000E+00 -0.00000000000E+00 -0.53806625733E+03  0.53806625733E+03  0.00000000000E+00 0. -1.
      99926    2    1    2    0    0  0.00000000000E+00  0.14210854715E-13 -0.43980084026E+03  0.63633167441E+03  0.45988392097E+03 0.  0.
      99925    2    3    3    0    0 -0.93953656632E+02 -0.65684670781E+02 -0.31307680481E+03  0.42455760888E+03  0.26285036043E+03 0.  0.
         25    1    4    4    0    0 -0.53865869041E+02  0.73494639402E+01 -0.14414950111E+03  0.19844932159E+03  0.12509000000E+03 0.  0.
         25    1    4    4    0    0 -0.40087787592E+02 -0.73034134722E+02 -0.16892730370E+03  0.22610828729E+03  0.12509000000E+03 0.  0.
         25    1    3    3    0    0  0.93953656632E+02  0.65684670781E+02 -0.12672403545E+03  0.21177406553E+03  0.12509000000E+03 0.  0.
<mgrwt>
<rscale>  2 0.45988392E+03</rscale>
<asrwt>0</asrwt>
<pdfrwt beam="1">  1       21 0.14450797E-01 0.45988392E+03</pdfrwt>
<pdfrwt beam="2">  1       21 0.79127389E-01 0.45988392E+03</pdfrwt>
<totfact> 0.54369547E+04</totfact>
</mgrwt>
</event>
<event>
 7    0  0.4709932E-002  0.4525654E+03  0.7546771E-02  0.1026960E+00
         21   -1    0    0  502  501  0.00000000000E+00  0.00000000000E+00  0.19268733192E+04  0.19268733192E+04  0.00000000000E+00 0.  1.
         21   -1    0    0  501  502 -0.00000000000E+00 -0.00000000000E+00 -0.26573543494E+02  0.26573543494E+02  0.00000000000E+00 0.  1.
      99926    2    1    2    0    0  0.00000000000E+00  0.00000000000E+00  0.19002997757E+04  0.19534468627E+04  0.45256536304E+03 0.  0.
      99925    2    3    3    0    0  0.80306604558E+02  0.66710501103E+02  0.10464746084E+04  0.10842148073E+04  0.26365356181E+03 0.  0.
         25    1    4    4    0    0  0.21581283004E+02  0.23555807540E+02  0.63564961353E+03  0.64862821950E+03  0.12509000000E+03 0.  0.
         25    1    4    4    0    0  0.58725321554E+02  0.43154693563E+02  0.41082499485E+03  0.43558658779E+03  0.12509000000E+03 0.  0.
         25    1    3    3    0    0 -0.80306604558E+02 -0.66710501103E+02  0.85382516732E+03  0.86923205541E+03  0.12509000000E+03 0.  0.
<mgrwt>
<rscale>  2 0.45256536E+03</rscale>
<asrwt>0</asrwt>
<pdfrwt beam="1">  1       21 0.28336363E+00 0.45256536E+03</pdfrwt>
<pdfrwt beam="2">  1       21 0.39078753E-02 0.45256536E+03</pdfrwt>
<totfact> 0.14762047E+04</totfact>
</mgrwt>
</event>
<event>
 7    0  0.4709932E-002  0.4475992E+03  0.7546771E-02  0.1028440E+00
         21   -1    0    0  502  501  0.00000000000E+00  0.00000000000E+00  0.75331915832E+02  0.75331915832E+02  0.00000000000E+00 0. -1.
         21   -1    0    0  501  502 -0.00000000000E+00 -0.00000000000E+00 -0.66487427134E+03  0.66487427134E+03  0.00000000000E+00 0. -1.
      99926    2    1    2    0    0 -0.14210854715E-13 -0.71054273576E-14 -0.58954235551E+03  0.74020618717E+03  0.44759916286E+03 0.  0.
      99925    2    3    3    0    0 -0.89076223900E+02 -0.50478297479E+02 -0.32774243442E+03  0.43252235763E+03  0.26301683282E+03 0.  0.
         25    1    4    4    0    0 -0.52794629851E+02 -0.37817893432E+02 -0.11127348045E+03  0.17957383316E+03  0.12509000000E+03 0.  0.
         25    1    4    4    0    0 -0.36281594049E+02 -0.12660404046E+02 -0.21646895396E+03  0.25294852446E+03  0.12509000000E+03 0.  0.
         25    1    3    3    0    0  0.89076223900E+02  0.50478297479E+02 -0.26179992109E+03  0.30768382955E+03  0.12509000000E+03 0.  0.
<mgrwt>
<rscale>  2 0.44759916E+03</rscale>
<asrwt>0</asrwt>
<pdfrwt beam="1">  1       21 0.11078223E-01 0.44759916E+03</pdfrwt>
<pdfrwt beam="2">  1       21 0.97775627E-01 0.44759916E+03</pdfrwt>
<totfact> 0.53838443E+04</totfact>
</mgrwt>
</event>
<event>
 7    0  0.4709932E-002  0.4474367E+03  0.7546771E-02  0.1028489E+00
         21   -1    0    0  502  501  0.00000000000E+00  0.00000000000E+00  0.11509585095E+03  0.11509585095E+03  0.00000000000E+00 0.  1.
         21   -1    0    0  501  502 -0.00000000000E+00 -0.00000000000E+00 -0.43485411759E+03  0.43485411759E+03  0.00000000000E+00 0.  1.
      99926    2    1    2    0    0  0.00000000000E+00  0.00000000000E+00 -0.31975826663E+03  0.54994996854E+03  0.44743672046E+03 0.  0.
      99925    2    3    3    0    0  0.22318111951E+02 -0.97026739718E+02 -0.24680288141E+03  0.37421641263E+03  0.26308548965E+03 0.  0.
         25    1    3    3    0    0 -0.22318111951E+02  0.97026739718E+02 -0.72955385226E+02  0.17573355592E+03  0.12509000000E+03 0.  0.
         25    1    4    4    0    0  0.27612355483E+02 -0.88559885569E+02 -0.13243315116E+03  0.20442931085E+03  0.12509000000E+03 0.  0.
         25    1    4    4    0    0 -0.52942435325E+01 -0.84668541493E+01 -0.11436973024E+03  0.16978710178E+03  0.12509000000E+03 0.  0.
<mgrwt>
<rscale>  2 0.44743672E+03</rscale>
<asrwt>0</asrwt>
<pdfrwt beam="1">  1       21 0.16925860E-01 0.44743672E+03</pdfrwt>
<pdfrwt beam="2">  1       21 0.63949137E-01 0.44743672E+03</pdfrwt>
<totfact> 0.65714741E+04</totfact>
</mgrwt>
</event>
<event>
 7    0  0.4709932E-002  0.4547255E+03  0.7546771E-02  0.1026322E+00
         21   -1    0    0  502  501  0.00000000000E+00  0.00000000000E+00  0.24787243253E+03  0.24787243253E+03  0.00000000000E+00 0.  1.
         21   -1    0    0  501  502 -0.00000000000E+00 -0.00000000000E+00 -0.20855007807E+03  0.20855007807E+03  0.00000000000E+00 0.  1.
      99926    2    1    2    0    0 -0.71054273576E-14 -0.14210854715E-13  0.39322354454E+02  0.45642251060E+03  0.45472547831E+03 0.  0.
      99925    2    3    3    0    0  0.24506996131E+02  0.67081972890E+02 -0.62972950641E+02  0.27975213535E+03  0.26304957855E+03 0.  0.
         25    1    4    4    0    0 -0.18776765878E+02  0.86116492793E+01 -0.16998847304E+02  0.12791870993E+03  0.12509000000E+03 0.  0.
         25    1    4    4    0    0  0.43283762010E+02  0.58470323611E+02 -0.45974103337E+02  0.15183342542E+03  0.12509000000E+03 0.  0.
         25    1    3    3    0    0 -0.24506996131E+02 -0.67081972890E+02  0.10229530510E+03  0.17667037525E+03  0.12509000000E+03 0.  0.
<mgrwt>
<rscale>  2 0.45472548E+03</rscale>
<asrwt>0</asrwt>
<pdfrwt beam="1">  1       21 0.36451828E-01 0.45472548E+03</pdfrwt>
<pdfrwt beam="2">  1       21 0.30669129E-01 0.45472548E+03</pdfrwt>
<totfact> 0.68591845E+04</totfact>
</mgrwt>
</event>
<event>
 7    0  0.4709932E-002  0.4570798E+03  0.7546771E-02  0.1025632E+00
         21   -1    0    0  502  501  0.00000000000E+00  0.00000000000E+00  0.45408843705E+02  0.45408843705E+02  0.00000000000E+00 0. -1.
         21   -1    0    0  501  502 -0.00000000000E+00 -0.00000000000E+00 -0.11502271003E+04  0.11502271003E+04  0.00000000000E+00 0. -1.
      99926    2    1    2    0    0  0.00000000000E+00  0.00000000000E+00 -0.11048182566E+04  0.11956359440E+04  0.45707978569E+03 0.  0.
      99925    2    3    3    0    0 -0.11438925319E+03  0.12303152106E+02 -0.69993193290E+03  0.75652694613E+03  0.26304380003E+03 0.  0.
         25    1    3    3    0    0  0.11438925319E+03 -0.12303152106E+02 -0.40488632370E+03  0.43910899787E+03  0.12509000000E+03 0.  0.
         25    1    4    4    0    0 -0.86012952317E+02 -0.14100512876E+02 -0.31560884354E+03  0.35050463999E+03  0.12509000000E+03 0.  0.
         25    1    4    4    0    0 -0.28376300869E+02  0.26403664982E+02 -0.38432308936E+03  0.40602230615E+03  0.12509000000E+03 0.  0.
<mgrwt>
<rscale>  2 0.45707979E+03</rscale>
<asrwt>0</asrwt>
<pdfrwt beam="1">  1       21 0.66777724E-02 0.45707979E+03</pdfrwt>
<pdfrwt beam="2">  1       21 0.16915101E+00 0.45707979E+03</pdfrwt>
<totfact> 0.31776593E+04</totfact>
</mgrwt>
</event>
<event>
 7    0  0.4709932E-002  0.4366868E+03  0.7546771E-02  0.1031768E+00
         21   -1    0    0  502  501  0.00000000000E+00  0.00000000000E+00  0.48998244420E+03  0.48998244420E+03  0.00000000000E+00 0. -1.
         21   -1    0    0  501  502 -0.00000000000E+00 -0.00000000000E+00 -0.97297034717E+02  0.97297034717E+02  0.00000000000E+00 0. -1.
      99926    2    1    2    0    0 -0.15543122345E-14  0.00000000000E+00  0.39268540949E+03  0.58727947892E+03  0.43668679341E+03 0.  0.
      99925    2    3    3    0    0 -0.10841836061E+01  0.94074815419E+02  0.26863606261E+03  0.38756219146E+03  0.26303587543E+03 0.  0.
         25    1    3    3    0    0  0.10841836061E+01 -0.94074815419E+02  0.12404934687E+03  0.19971728746E+03  0.12509000000E+03 0.  0.
         25    1    4    4    0    0 -0.26024574816E+02  0.23910130596E+02  0.15869238448E+03  0.20513350246E+03  0.12509000000E+03 0.  0.
         25    1    4    4    0    0  0.24940391210E+02  0.70164684822E+02  0.10994367814E+03  0.18242868901E+03  0.12509000000E+03 0.  0.
<mgrwt>
<rscale>  2 0.43668679E+03</rscale>
<asrwt>0</asrwt>
<pdfrwt beam="1">  1       21 0.72056241E-01 0.43668679E+03</pdfrwt>
<pdfrwt beam="2">  1       21 0.14308388E-01 0.43668679E+03</pdfrwt>
<totfact> 0.68914147E+04</totfact>
</mgrwt>
</event>
<event>
 7    0  0.4709932E-002  0.4580587E+03  0.7546771E-02  0.1025346E+00
         21   -1    0    0  502  501  0.00000000000E+00  0.00000000000E+00  0.39426332727E+03  0.39426332727E+03  0.00000000000E+00 0. -1.
         21   -1    0    0  501  502 -0.00000000000E+00 -0.00000000000E+00 -0.13304415938E+03  0.13304415938E+03  0.00000000000E+00 0. -1.
      99926    2    1    2    0    0  0.00000000000E+00 -0.35527136788E-14  0.26121916789E+03  0.52730748666E+03  0.45805865543E+03 0.  0.
      99925    2    3    3    0    0 -0.11365628102E+03  0.21580886559E+02  0.15450261707E+03  0.32626168292E+03  0.26304399287E+03 0.  0.
         25    1    4    4    0    0 -0.73918351283E+02 -0.25837043217E+02  0.85923924256E+02  0.17076856947E+03  0.12509000000E+03 0.  0.
         25    1    4    4    0    0 -0.39737929737E+02  0.47417929776E+02  0.68578692812E+02  0.15549311345E+03  0.12509000000E+03 0.  0.
         25    1    3    3    0    0  0.11365628102E+03 -0.21580886559E+02  0.10671655082E+03  0.20104580373E+03  0.12509000000E+03 0.  0.
<mgrwt>
<rscale>  2 0.45805866E+03</rscale>
<asrwt>0</asrwt>
<pdfrwt beam="1">  1       21 0.57979901E-01 0.45805866E+03</pdfrwt>
<pdfrwt beam="2">  1       21 0.19565318E-01 0.45805866E+03</pdfrwt>
<totfact> 0.61875249E+04</totfact>
</mgrwt>
</event>
<event>
 7    0  0.4709932E-002  0.4460990E+03  0.7546771E-02  0.1028892E+00
         21   -1    0    0  502  501  0.00000000000E+00  0.00000000000E+00  0.56833457549E+03  0.56833457549E+03  0.00000000000E+00 0.  1.
         21   -1    0    0  501  502 -0.00000000000E+00 -0.00000000000E+00 -0.87538351364E+02  0.87538351364E+02  0.00000000000E+00 0.  1.
      99926    2    1    2    0    0  0.00000000000E+00  0.00000000000E+00  0.48079622412E+03  0.65587292685E+03  0.44609896553E+03 0.  0.
      99925    2    3    3    0    0 -0.64319274668E+02  0.48571129221E+02  0.40315374118E+03  0.48802779900E+03  0.26294879706E+03 0.  0.
         25    1    3    3    0    0  0.64319274668E+02 -0.48571129221E+02  0.77642482945E+02  0.16784512786E+03  0.12509000000E+03 0.  0.
         25    1    4    4    0    0 -0.73103680053E+02  0.19355985167E+02  0.20792222051E+03  0.25416128754E+03  0.12509000000E+03 0.  0.
         25    1    4    4    0    0  0.87844053854E+01  0.29215144054E+02  0.19523152067E+03  0.23386651146E+03  0.12509000000E+03 0.  0.
<mgrwt>
<rscale>  2 0.44609897E+03</rscale>
<asrwt>0</asrwt>
<pdfrwt beam="1">  1       21 0.83578612E-01 0.44609897E+03</pdfrwt>
<pdfrwt beam="2">  1       21 0.12873287E-01 0.44609897E+03</pdfrwt>
<totfact> 0.59427057E+04</totfact>
</mgrwt>
</event>
<event>
 7    0  0.4709932E-002  0.4608333E+03  0.7546771E-02  0.1024540E+00
         21   -1    0    0  502  501  0.00000000000E+00  0.00000000000E+00  0.18242896756E+03  0.18242896756E+03  0.00000000000E+00 0.  1.
         21   -1    0    0  501  502 -0.00000000000E+00 -0.00000000000E+00 -0.29102745699E+03  0.29102745699E+03  0.00000000000E+00 0.  1.
      99926    2    1    2    0    0 -0.44408920985E-14  0.00000000000E+00 -0.10859848943E+03  0.47345642454E+03  0.46083332565E+03 0.  0.
      99925    2    3    3    0    0  0.63819935929E+01 -0.99888651454E+02 -0.13319401541E+03  0.31137335778E+03  0.26304799878E+03 0.  0.
         25    1    4    4    0    0 -0.36926482043E+02 -0.56552805696E+02 -0.67080044484E+02  0.15719104738E+03  0.12509000000E+03 0.  0.
         25    1    4    4    0    0  0.43308475636E+02 -0.43335845758E+02 -0.66113970931E+02  0.15418231040E+03  0.12509000000E+03 0.  0.
         25    1    3    3    0    0 -0.63819935929E+01  0.99888651454E+02  0.24595525983E+02  0.16208306676E+03  0.12509000000E+03 0.  0.
<mgrwt>
<rscale>  2 0.46083333E+03</rscale>
<asrwt>0</asrwt>
<pdfrwt beam="1">  1       21 0.26827790E-01 0.46083333E+03</pdfrwt>
<pdfrwt beam="2">  1       21 0.42798155E-01 0.46083333E+03</pdfrwt>
<totfact> 0.64158872E+04</totfact>
</mgrwt>
</event>
<event>
 7    0  0.4709932E-002  0.4581914E+03  0.7546771E-02  0.1025307E+00
         21   -1    0    0  502  501  0.00000000000E+00  0.00000000000E+00  0.40037634208E+02  0.40037634208E+02  0.00000000000E+00 0. -1.
         21   -1    0    0  501  502 -0.00000000000E+00 -0.00000000000E+00 -0.13108876624E+04  0.13108876624E+04  0.00000000000E+00 0. -1.
      99926    2    1    2    0    0  0.00000000000E+00  0.00000000000E+00 -0.12708500282E+04  0.13509252966E+04  0.45819140417E+03 0.  0.
      99925    2    3    3    0    0  0.10959127576E+03  0.31417768527E+02 -0.73209540935E+03  0.78621176628E+03  0.26299796416E+03 0.  0.
         25    1    3    3    0    0 -0.10959127576E+03 -0.31417768527E+02 -0.53875461881E+03  0.56471353028E+03  0.12509000000E+03 0.  0.
         25    1    4    4    0    0  0.15425316970E+02  0.31695317878E+02 -0.32118475471E+03  0.34648187303E+03  0.12509000000E+03 0.  0.
         25    1    4    4    0    0  0.94165958789E+02 -0.27754935029E+00 -0.41091065464E+03  0.43972989326E+03  0.12509000000E+03 0.  0.
<mgrwt>
<rscale>  2 0.45819140E+03</rscale>
<asrwt>0</asrwt>
<pdfrwt beam="1">  1       21 0.58878864E-02 0.45819140E+03</pdfrwt>
<pdfrwt beam="2">  1       21 0.19277763E+00 0.45819140E+03</pdfrwt>
<totfact> 0.26993702E+04</totfact>
</mgrwt>
</event>
<event>
 7    0  0.4709932E-002  0.4528457E+03  0.7546771E-02  0.1026877E+00
         21   -1    0    0  502  501  0.00000000000E+00  0.00000000000E+00  0.61341015190E+03  0.61341015190E+03  0.00000000000E+00 0. -1.
         21   -1    0    0  501  502 -0.00000000000E+00 -0.00000000000E+00 -0.83577543549E+02  0.83577543549E+02  0.00000000000E+00 0. -1.
      99926    2    1    2    0    0  0.17763568394E-14  0.00000000000E+00  0.52983260835E+03  0.69698769545E+03  0.45284572951E+03 0.  0.
      99925    2    3    3    0    0 -0.12743240910E+02 -0.99459793984E+02  0.40759497700E+03  0.49538365921E+03  0.26309059985E+03 0.  0.
         25    1    4    4    0    0 -0.33127428373E+02 -0.78529547630E+02  0.19296573615E+03  0.24525007602E+03  0.12509000000E+03 0.  0.
         25    1    3    3    0    0  0.12743240910E+02  0.99459793984E+02  0.12223763135E+03  0.20160403623E+03  0.12509000000E+03 0.  0.
         25    1    4    4    0    0  0.20384187462E+02 -0.20930246354E+02  0.21462924086E+03  0.25013358319E+03  0.12509000000E+03 0.  0.
<mgrwt>
<rscale>  2 0.45284573E+03</rscale>
<asrwt>0</asrwt>
<pdfrwt beam="1">  1       21 0.90207373E-01 0.45284573E+03</pdfrwt>
<pdfrwt beam="2">  1       21 0.12290816E-01 0.45284573E+03</pdfrwt>
<totfact> 0.53976184E+04</totfact>
</mgrwt>
</event>
<event>
 7    0  0.4709932E-002  0.4553099E+03  0.7546771E-02  0.1026150E+00
         21   -1    0    0  502  501  0.00000000000E+00  0.00000000000E+00  0.68691161791E+02  0.68691161791E+02  0.00000000000E+00 0.  1.
         21   -1    0    0  501  502 -0.00000000000E+00 -0.00000000000E+00 -0.75448973079E+03  0.75448973079E+03  0.00000000000E+00 0.  1.
      99926    2    1    2    0    0  0.00000000000E+00  0.35527136788E-14 -0.68579856899E+03  0.82318089258E+03  0.45530989959E+03 0.  0.
      99925    2    3    3    0    0  0.11407505291E+03  0.20030885147E+01 -0.44798162425E+03  0.53125361161E+03  0.26177420447E+03 0.  0.
         25    1    4    4    0    0  0.32919398686E+02 -0.30399291902E+02 -0.20173260082E+03  0.24156024940E+03  0.12509000000E+03 0.  0.
         25    1    4    4    0    0  0.81155654229E+02  0.32402380417E+02 -0.24624902343E+03  0.28969336221E+03  0.12509000000E+03 0.  0.
         25    1    3    3    0    0 -0.11407505291E+03 -0.20030885147E+01 -0.23781694475E+03  0.29192728096E+03  0.12509000000E+03 0.  0.
<mgrwt>
<rscale>  2 0.45530990E+03</rscale>
<asrwt>0</asrwt>
<pdfrwt beam="1">  1       21 0.10101642E-01 0.45530990E+03</pdfrwt>
<pdfrwt beam="2">  1       21 0.11095437E+00 0.45530990E+03</pdfrwt>
<totfact> 0.46550640E+04</totfact>
</mgrwt>
</event>
<event>
 7    0  0.4709932E-002  0.4545618E+03  0.7546771E-02  0.1026370E+00
         21   -1    0    0  502  501  0.00000000000E+00  0.00000000000E+00  0.44839245554E+02  0.44839245554E+02  0.00000000000E+00 0. -1.
         21   -1    0    0  501  502 -0.00000000000E+00 -0.00000000000E+00 -0.11520402595E+04  0.11520402595E+04  0.00000000000E+00 0. -1.
      99926    2    1    2    0    0  0.00000000000E+00  0.00000000000E+00 -0.11072010139E+04  0.11968795051E+04  0.45456183775E+03 0.  0.
      99925    2    3    3    0    0 -0.48354078307E+02  0.10074928141E+03 -0.65799038784E+03  0.71737327016E+03  0.26302951101E+03 0.  0.
         25    1    3    3    0    0  0.48354078307E+02 -0.10074928141E+03 -0.44921062611E+03  0.47950623490E+03  0.12509000000E+03 0.  0.
         25    1    4    4    0    0 -0.82771025139E+01  0.29573540976E+02 -0.38778171257E+03  0.40861383904E+03  0.12509000000E+03 0.  0.
         25    1    4    4    0    0 -0.40076975793E+02  0.71175740434E+02 -0.27020867527E+03  0.30875943112E+03  0.12509000000E+03 0.  0.
<mgrwt>
<rscale>  2 0.45456184E+03</rscale>
<asrwt>0</asrwt>
<pdfrwt beam="1">  1       21 0.65940067E-02 0.45456184E+03</pdfrwt>
<pdfrwt beam="2">  1       21 0.16941768E+00 0.45456184E+03</pdfrwt>
<totfact> 0.32365334E+04</totfact>
</mgrwt>
</event>
<event>
 7    0  0.4709932E-002  0.4563765E+03  0.7546771E-02  0.1025837E+00
         21   -1    0    0  502  501  0.00000000000E+00  0.00000000000E+00  0.10102473361E+03  0.10102473361E+03  0.00000000000E+00 0. -1.
         21   -1    0    0  501  502 -0.00000000000E+00 -0.00000000000E+00 -0.51541715917E+03  0.51541715917E+03  0.00000000000E+00 0. -1.
      99926    2    1    2    0    0  0.00000000000E+00 -0.14210854715E-13 -0.41439242555E+03  0.61644189278E+03  0.45637651650E+03 0.  0.
      99925    2    3    3    0    0  0.20521067439E+01  0.76146238553E+02 -0.14501726579E+03  0.30982658725E+03  0.26298297664E+03 0.  0.
         25    1    4    4    0    0  0.46711461752E+01  0.80100446022E+02 -0.79194889753E+02  0.16839607989E+03  0.12509000000E+03 0.  0.
         25    1    3    3    0    0 -0.20521067439E+01 -0.76146238553E+02 -0.26937515976E+03  0.30661530553E+03  0.12509000000E+03 0.  0.
         25    1    4    4    0    0 -0.26190394313E+01 -0.39542074693E+01 -0.65822376042E+02  0.14143050736E+03  0.12509000000E+03 0.  0.
<mgrwt>
<rscale>  2 0.45637652E+03</rscale>
<asrwt>0</asrwt>
<pdfrwt beam="1">  1       21 0.14856578E-01 0.45637652E+03</pdfrwt>
<pdfrwt beam="2">  1       21 0.75796643E-01 0.45637652E+03</pdfrwt>
<totfact> 0.57054697E+04</totfact>
</mgrwt>
</event>
<event>
 7    0  0.4709932E-002  0.4546341E+03  0.7546771E-02  0.1026349E+00
         21   -1    0    0  502  501  0.00000000000E+00  0.00000000000E+00  0.33891068160E+02  0.33891068160E+02  0.00000000000E+00 0. -1.
         21   -1    0    0  501  502 -0.00000000000E+00 -0.00000000000E+00 -0.15246799403E+04  0.15246799403E+04  0.00000000000E+00 0. -1.
      99926    2    1    2    0    0  0.00000000000E+00  0.71054273576E-14 -0.14907888722E+04  0.15585710085E+04  0.45463405846E+03 0.  0.
      99925    2    3    3    0    0  0.97565892170E+02  0.51873302522E+02 -0.85545776015E+03  0.90168207356E+03  0.26270256861E+03 0.  0.
         25    1    4    4    0    0  0.84312185165E+02  0.31484482278E+02 -0.53702280351E+03  0.55869563877E+03  0.12509000000E+03 0.  0.
         25    1    4    4    0    0  0.13253707005E+02  0.20388820244E+02 -0.31843495664E+03  0.34298643479E+03  0.12509000000E+03 0.  0.
         25    1    3    3    0    0 -0.97565892170E+02 -0.51873302522E+02 -0.63533111201E+03  0.65688893492E+03  0.12509000000E+03 0.  0.
<mgrwt>
<rscale>  2 0.45463406E+03</rscale>
<asrwt>0</asrwt>
<pdfrwt beam="1">  1       21 0.49839791E-02 0.45463406E+03</pdfrwt>
<pdfrwt beam="2">  1       21 0.22421771E+00 0.45463406E+03</pdfrwt>
<totfact> 0.22443190E+04</totfact>
</mgrwt>
</event>
<event>
 7    0  0.4709932E-002  0.4564034E+03  0.7546771E-02  0.1025830E+00
         21   -1    0    0  502  501  0.00000000000E+00  0.00000000000E+00  0.14632510731E+03  0.14632510731E+03  0.00000000000E+00 0. -1.
         21   -1    0    0  501  502 -0.00000000000E+00 -0.00000000000E+00 -0.35589262896E+03  0.35589262896E+03  0.00000000000E+00 0. -1.
      99926    2    1    2    0    0  0.00000000000E+00  0.00000000000E+00 -0.20956752164E+03  0.50221773627E+03  0.45640344926E+03 0.  0.
      99925    2    3    3    0    0  0.16644507455E+02  0.61009132508E+02 -0.26669156304E+02  0.27178667495E+03  0.26297832402E+03 0.  0.
         25    1    4    4    0    0  0.15845466586E+02 -0.78811374764E+00  0.12925839888E+02  0.12675285153E+03  0.12509000000E+03 0.  0.
         25    1    3    3    0    0 -0.16644507455E+02 -0.61009132508E+02 -0.18289836534E+03  0.23043106132E+03  0.12509000000E+03 0.  0.
         25    1    4    4    0    0  0.79904086880E+00  0.61797246256E+02 -0.39594996192E+02  0.14503382342E+03  0.12509000000E+03 0.  0.
<mgrwt>
<rscale>  2 0.45640345E+03</rscale>
<asrwt>0</asrwt>
<pdfrwt beam="1">  1       21 0.21518398E-01 0.45640345E+03</pdfrwt>
<pdfrwt beam="2">  1       21 0.52337151E-01 0.45640345E+03</pdfrwt>
<totfact> 0.64394761E+04</totfact>
</mgrwt>
</event>
<event>
 7    0  0.4709932E-002  0.4578781E+03  0.7546771E-02  0.1025398E+00
         21   -1    0    0  502  501  0.00000000000E+00  0.00000000000E+00  0.15359439034E+03  0.15359439034E+03  0.00000000000E+00 0.  1.
         21   -1    0    0  501  502 -0.00000000000E+00 -0.00000000000E+00 -0.34124357214E+03  0.34124357214E+03  0.00000000000E+00 0.  1.
      99926    2    1    2    0    0  0.14210854715E-13 -0.14210854715E-13 -0.18764918180E+03  0.49483796248E+03  0.45787814283E+03 0.  0.
      99925    2    3    3    0    0  0.94777915706E+02 -0.63605732596E+02 -0.13784617907E+03  0.31832623566E+03  0.26325174396E+03 0.  0.
         25    1    4    4    0    0  0.35214495186E+02 -0.49600433580E+02 -0.30249351825E+02  0.14234744490E+03  0.12509000000E+03 0.  0.
         25    1    4    4    0    0  0.59563420520E+02 -0.14005299017E+02 -0.10759682724E+03  0.17597879076E+03  0.12509000000E+03 0.  0.
         25    1    3    3    0    0 -0.94777915706E+02  0.63605732596E+02 -0.49803002727E+02  0.17651172682E+03  0.12509000000E+03 0.  0.
<mgrwt>
<rscale>  2 0.45787814E+03</rscale>
<asrwt>0</asrwt>
<pdfrwt beam="1">  1       21 0.22587411E-01 0.45787814E+03</pdfrwt>
<pdfrwt beam="2">  1       21 0.50182878E-01 0.45787814E+03</pdfrwt>
<totfact> 0.64156393E+04</totfact>
</mgrwt>
</event>
<event>
 7    0  0.4709932E-002  0.4509597E+03  0.7546771E-02  0.1027436E+00
         21   -1    0    0  502  501  0.00000000000E+00  0.00000000000E+00  0.27598061542E+03  0.27598061542E+03  0.00000000000E+00 0. -1.
         21   -1    0    0  501  502 -0.00000000000E+00 -0.00000000000E+00 -0.18422001354E+03  0.18422001354E+03  0.00000000000E+00 0. -1.
      99926    2    1    2    0    0  0.00000000000E+00  0.00000000000E+00  0.91760601878E+02  0.46020062897E+03  0.45095965545E+03 0.  0.
      99925    2    3    3    0    0 -0.11724170350E+02 -0.87652585438E+02 -0.76453789606E+01  0.27758220429E+03  0.26300759764E+03 0.  0.
         25    1    3    3    0    0  0.11724170350E+02  0.87652585438E+02  0.99405980839E+02  0.18261842468E+03  0.12509000000E+03 0.  0.
         25    1    4    4    0    0 -0.36694812735E+02 -0.70860393944E+02  0.37268993066E+01  0.14842204213E+03  0.12509000000E+03 0.  0.
         25    1    4    4    0    0  0.24970642385E+02 -0.16792191495E+02 -0.11372278267E+02  0.12916016216E+03  0.12509000000E+03 0.  0.
<mgrwt>
<rscale>  2 0.45095966E+03</rscale>
<asrwt>0</asrwt>
<pdfrwt beam="1">  1       21 0.40585385E-01 0.45095966E+03</pdfrwt>
<pdfrwt beam="2">  1       21 0.27091178E-01 0.45095966E+03</pdfrwt>
<totfact> 0.70401703E+04</totfact>
</mgrwt>
</event>
<event>
 7    0  0.4709932E-002  0.4548756E+03  0.7546771E-02  0.1026278E+00
         21   -1    0    0  502  501  0.00000000000E+00  0.00000000000E+00  0.32479381918E+03  0.32479381918E+03  0.00000000000E+00 0. -1.
         21   -1    0    0  501  502 -0.00000000000E+00 -0.00000000000E+00 -0.15926399959E+03  0.15926399959E+03  0.00000000000E+00 0. -1.
      99926    2    1    2    0    0 -0.99920072216E-15  0.00000000000E+00  0.16552981959E+03  0.48405781878E+03  0.45487564317E+03 0.  0.
      99925    2    3    3    0    0 -0.88457854166E+00  0.10069801251E+03  0.50112559996E+02  0.28629653816E+03  0.26327469853E+03 0.  0.
         25    1    3    3    0    0  0.88457854166E+00 -0.10069801251E+03  0.11541725959E+03  0.19776128062E+03  0.12509000000E+03 0.  0.
         25    1    4    4    0    0  0.25640555141E+02  0.47474712473E+02 -0.71554826783E+01  0.13641845705E+03  0.12509000000E+03 0.  0.
         25    1    4    4    0    0 -0.26525133682E+02  0.53223300033E+02  0.57268042674E+02  0.14987808110E+03  0.12509000000E+03 0.  0.
<mgrwt>
<rscale>  2 0.45487564E+03</rscale>
<asrwt>0</asrwt>
<pdfrwt beam="1">  1       21 0.47763797E-01 0.45487564E+03</pdfrwt>
<pdfrwt beam="2">  1       21 0.23421176E-01 0.45487564E+03</pdfrwt>
<totfact> 0.66471485E+04</totfact>
</mgrwt>
</event>
<event>
 7    0  0.4709932E-002  0.4885784E+03  0.7546771E-02  0.1016804E+00
         21   -1    0    0  502  501  0.00000000000E+00  0.00000000000E+00  0.89338616084E+02  0.89338616084E+02  0.00000000000E+00 0.  1.
         21   -1    0    0  501  502 -0.00000000000E+00 -0.00000000000E+00 -0.66798913974E+03  0.66798913974E+03  0.00000000000E+00 0.  1.
      99926    2    1    2    0    0  0.14210854715E-13  0.14210854715E-13 -0.57865052365E+03  0.75732775582E+03  0.48857844940E+03 0.  0.
      99925    2    3    3    0    0 -0.10743844717E+03 -0.91607279502E+02 -0.32585300880E+03  0.44190897831E+03  0.26299895091E+03 0.  0.
         25    1    4    4    0    0 -0.34510394314E+02 -0.50229568314E+02 -0.10375422327E+03  0.17356965114E+03  0.12509000000E+03 0.  0.
         25    1    3    3    0    0  0.10743844717E+03  0.91607279502E+02 -0.25279751486E+03  0.31541877751E+03  0.12509000000E+03 0.  0.
         25    1    4    4    0    0 -0.72928052861E+02 -0.41377711188E+02 -0.22209878552E+03  0.26833932717E+03  0.12509000000E+03 0.  0.
<mgrwt>
<rscale>  2 0.48857845E+03</rscale>
<asrwt>0</asrwt>
<pdfrwt beam="1">  1       21 0.13138032E-01 0.48857845E+03</pdfrwt>
<pdfrwt beam="2">  1       21 0.98233699E-01 0.48857845E+03</pdfrwt>
<totfact> 0.38644417E+04</totfact>
</mgrwt>
</event>
<event>
 6    0  0.4709932E-002  0.4552112E+03  0.7546771E-02  0.1026179E+00
         21   -1    0    0  502  501  0.00000000000E+00  0.00000000000E+00  0.19754092605E+03  0.19754092605E+03  0.00000000000E+00 0.  1.
         21   -1    0    0  501  502 -0.00000000000E+00 -0.00000000000E+00 -0.26224595757E+03  0.26224595757E+03  0.00000000000E+00 0.  1.
      99926    2    1    2    0    0  0.14210854715E-13  0.00000000000E+00 -0.64705031516E+02  0.45978688362E+03  0.45521120070E+03 0.  0.
         25    1    3    3    0    0  0.54860404902E+01  0.27525703558E+02 -0.39888930146E+02  0.13426241412E+03  0.12509000000E+03 0.  0.
         25    1    3    3    0    0 -0.77432676482E+02  0.56411250654E+02 -0.15548502079E+02  0.15832660106E+03  0.12509000000E+03 0.  0.
         25    1    3    3    0    0  0.71946635992E+02 -0.83936954211E+02 -0.92675992910E+01  0.16719786844E+03  0.12509000000E+03 0.  0.
<mgrwt>
<rscale>  2 0.45521120E+03</rscale>
<asrwt>0</asrwt>
<pdfrwt beam="1">  1       21 0.29050136E-01 0.45521120E+03</pdfrwt>
<pdfrwt beam="2">  1       21 0.38565582E-01 0.45521120E+03</pdfrwt>
<totfact> 0.68081370E+04</totfact>
</mgrwt>
</event>
<event>
 7    0  0.4709932E-002  0.4438779E+03  0.7546771E-02  0.1029564E+00
         21   -1    0    0  502  501  0.00000000000E+00  0.00000000000E+00  0.78215203752E+03  0.78215203752E+03  0.00000000000E+00 0.  1.
         21   -1    0    0  501  502 -0.00000000000E+00 -0.00000000000E+00 -0.62976125736E+02  0.62976125736E+02  0.00000000000E+00 0.  1.
      99926    2    1    2    0    0  0.00000000000E+00  0.00000000000E+00  0.71917591179E+03  0.84512816326E+03  0.44387793394E+03 0.  0.
      99925    2    3    3    0    0 -0.89839187204E+02  0.33732631331E+02  0.38893698184E+03  0.47918523202E+03  0.26294018477E+03 0.  0.
         25    1    4    4    0    0 -0.36654596532E+02  0.27457225392E+02  0.12718026227E+03  0.18417324965E+03  0.12509000000E+03 0.  0.
         25    1    4    4    0    0 -0.53184590671E+02  0.62754059390E+01  0.26175671957E+03  0.29501198237E+03  0.12509000000E+03 0.  0.
         25    1    3    3    0    0  0.89839187204E+02 -0.33732631331E+02  0.33023892995E+03  0.36594293124E+03  0.12509000000E+03 0.  0.
<mgrwt>
<rscale>  2 0.44387793E+03</rscale>
<asrwt>0</asrwt>
<pdfrwt beam="1">  1       21 0.11502235E+00 0.44387793E+03</pdfrwt>
<pdfrwt beam="2">  1       21 0.92611954E-02 0.44387793E+03</pdfrwt>
<totfact> 0.49868860E+04</totfact>
</mgrwt>
</event>
<event>
 7    0  0.4709932E-002  0.4551859E+03  0.7546771E-02  0.1026187E+00
         21   -1    0    0  502  501  0.00000000000E+00  0.00000000000E+00  0.40089582510E+03  0.40089582510E+03  0.00000000000E+00 0.  1.
         21   -1    0    0  501  502 -0.00000000000E+00 -0.00000000000E+00 -0.12920699695E+03  0.12920699695E+03  0.00000000000E+00 0.  1.
      99926    2    1    2    0    0  0.00000000000E+00  0.00000000000E+00  0.27168882815E+03  0.53010282204E+03  0.45518587697E+03 0.  0.
      99925    2    3    3    0    0 -0.59590681707E+02 -0.96233452143E+02  0.16435590492E+03  0.33015335051E+03  0.26301415306E+03 0.  0.
         25    1    3    3    0    0  0.59590681707E+02  0.96233452143E+02  0.10733292324E+03  0.19994947154E+03  0.12509000000E+03 0.  0.
         25    1    4    4    0    0 -0.92640231983E+01 -0.15312541996E+02  0.95961585050E+02  0.15867082269E+03  0.12509000000E+03 0.  0.
         25    1    4    4    0    0 -0.50326658509E+02 -0.80920910147E+02  0.68394319865E+02  0.17148252781E+03  0.12509000000E+03 0.  0.
<mgrwt>
<rscale>  2 0.45518588E+03</rscale>
<asrwt>0</asrwt>
<pdfrwt beam="1">  1       21 0.58955268E-01 0.45518588E+03</pdfrwt>
<pdfrwt beam="2">  1       21 0.19001029E-01 0.45518588E+03</pdfrwt>
<totfact> 0.63106547E+04</totfact>
</mgrwt>
</event>
<event>
 7    0  0.4709932E-002  0.4636724E+03  0.7546771E-02  0.1023721E+00
         21   -1    0    0  502  501  0.00000000000E+00  0.00000000000E+00  0.26497726314E+03  0.26497726314E+03  0.00000000000E+00 0. -1.
         21   -1    0    0  501  502 -0.00000000000E+00 -0.00000000000E+00 -0.20284009089E+03  0.20284009089E+03  0.00000000000E+00 0. -1.
      99926    2    1    2    0    0 -0.14210854715E-13  0.00000000000E+00  0.62137172249E+02  0.46781735403E+03  0.46367235044E+03 0.  0.
      99925    2    3    3    0    0 -0.98366687938E+02  0.63936359893E+02  0.87652114074E+01  0.28820683731E+03  0.26310166995E+03 0.  0.
         25    1    4    4    0    0 -0.56101316373E+02  0.61075522078E+01 -0.26603367430E+02  0.13978521793E+03  0.12509000000E+03 0.  0.
         25    1    4    4    0    0 -0.42265371565E+02  0.57828807685E+02  0.35368578838E+02  0.14842161938E+03  0.12509000000E+03 0.  0.
         25    1    3    3    0    0  0.98366687938E+02 -0.63936359893E+02  0.53371960841E+02  0.17961051672E+03  0.12509000000E+03 0.  0.
<mgrwt>
<rscale>  2 0.46367235E+03</rscale>
<asrwt>0</asrwt>
<pdfrwt beam="1">  1       21 0.38967245E-01 0.46367235E+03</pdfrwt>
<pdfrwt beam="2">  1       21 0.29829425E-01 0.46367235E+03</pdfrwt>
<totfact> 0.63133905E+04</totfact>
</mgrwt>
</event>
<event>
 7    0  0.4709932E-002  0.4507452E+03  0.7546771E-02  0.1027500E+00
         21   -1    0    0  502  501  0.00000000000E+00  0.00000000000E+00  0.11641137655E+03  0.11641137655E+03  0.00000000000E+00 0. -1.
         21   -1    0    0  501  502 -0.00000000000E+00 -0.00000000000E+00 -0.43632165351E+03  0.43632165351E+03  0.00000000000E+00 0. -1.
      99926    2    1    2    0    0  0.00000000000E+00  0.00000000000E+00 -0.31991027696E+03  0.55273303006E+03  0.45074517991E+03 0.  0.
      99925    2    3    3    0    0 -0.70244870243E+02 -0.74805552995E+02 -0.15660337837E+03  0.32284857260E+03  0.26301401134E+03 0.  0.
         25    1    4    4    0    0  0.29755640631E+01 -0.37829530903E+02 -0.92332433530E+02  0.16003972560E+03  0.12509000000E+03 0.  0.
         25    1    3    3    0    0  0.70244870243E+02  0.74805552995E+02 -0.16330689859E+03  0.22988445746E+03  0.12509000000E+03 0.  0.
         25    1    4    4    0    0 -0.73220434306E+02 -0.36976022092E+02 -0.64270944839E+02  0.16280884700E+03  0.12509000000E+03 0.  0.
<mgrwt>
<rscale>  2 0.45074518E+03</rscale>
<asrwt>0</asrwt>
<pdfrwt beam="1">  1       21 0.17119320E-01 0.45074518E+03</pdfrwt>
<pdfrwt beam="2">  1       21 0.64164950E-01 0.45074518E+03</pdfrwt>
<totfact> 0.63807118E+04</totfact>
</mgrwt>
</event>
<event>
 7    0  0.4709932E-002  0.4530623E+03  0.7546771E-02  0.1026813E+00
         21   -1    0    0  502  501  0.00000000000E+00  0.00000000000E+00  0.18586803424E+03  0.18586803424E+03  0.00000000000E+00 0. -1.
         21   -1    0    0  501  502 -0.00000000000E+00 -0.00000000000E+00 -0.27609031086E+03  0.27609031086E+03  0.00000000000E+00 0. -1.
      99926    2    1    2    0    0  0.88817841970E-15  0.00000000000E+00 -0.90222276618E+02  0.46195834510E+03  0.45306230632E+03 0.  0.
      99925    2    3    3    0    0 -0.11177559285E+01  0.99355563029E+02 -0.10786679785E+03  0.30123617951E+03  0.26312584914E+03 0.  0.
         25    1    4    4    0    0  0.74243561060E+01  0.28534375459E+02 -0.13851012420E+02  0.12926209921E+03  0.12509000000E+03 0.  0.
         25    1    4    4    0    0 -0.85421120345E+01  0.70821187570E+02 -0.94015785427E+02  0.17197408030E+03  0.12509000000E+03 0.  0.
         25    1    3    3    0    0  0.11177559285E+01 -0.99355563029E+02  0.17644521229E+02  0.16072216559E+03  0.12509000000E+03 0.  0.
<mgrwt>
<rscale>  2 0.45306231E+03</rscale>
<asrwt>0</asrwt>
<pdfrwt beam="1">  1       21 0.27333535E-01 0.45306231E+03</pdfrwt>
<pdfrwt beam="2">  1       21 0.40601516E-01 0.45306231E+03</pdfrwt>
<totfact> 0.69094775E+04</totfact>
</mgrwt>
</event>
<event>
 7    0  0.4709932E-002  0.4482368E+03  0.7546771E-02  0.1028249E+00
         21   -1    0    0  502  501  0.00000000000E+00  0.00000000000E+00  0.13616095453E+04  0.13616095453E+04  0.00000000000E+00 0.  1.
         21   -1    0    0  501  502 -0.00000000000E+00 -0.00000000000E+00 -0.36889468007E+02  0.36889468007E+02  0.00000000000E+00 0.  1.
      99926    2    1    2    0    0  0.00000000000E+00  0.71054273576E-14  0.13247200773E+04  0.13984990133E+04  0.44823677564E+03 0.  0.
      99925    2    3    3    0    0 -0.53538137209E+02  0.58761303550E+02  0.61571376414E+03  0.67416712590E+03  0.26282817839E+03 0.  0.
         25    1    4    4    0    0 -0.16278519221E+02  0.68501755888E+02  0.33347119808E+03  0.36305375469E+03  0.12509000000E+03 0.  0.
         25    1    3    3    0    0  0.53538137209E+02 -0.58761303550E+02  0.70900631316E+03  0.72433188742E+03  0.12509000000E+03 0.  0.
         25    1    4    4    0    0 -0.37259617988E+02 -0.97404523384E+01  0.28224256606E+03  0.31111337120E+03  0.12509000000E+03 0.  0.
<mgrwt>
<rscale>  2 0.44823678E+03</rscale>
<asrwt>0</asrwt>
<pdfrwt beam="1">  1       21 0.20023667E+00 0.44823678E+03</pdfrwt>
<pdfrwt beam="2">  1       21 0.54249227E-02 0.44823678E+03</pdfrwt>
<totfact> 0.27804974E+04</totfact>
</mgrwt>
</event>
<event>
 7    0  0.4709932E-002  0.4603639E+03  0.7546771E-02  0.1024676E+00
         21   -1    0    0  502  501  0.00000000000E+00  0.00000000000E+00  0.26086236393E+03  0.26086236393E+03  0.00000000000E+00 0.  1.
         21   -1    0    0  501  502 -0.00000000000E+00 -0.00000000000E+00 -0.20310989273E+03  0.20310989273E+03  0.00000000000E+00 0.  1.
      99926    2    1    2    0    0  0.00000000000E+00  0.14210854715E-13  0.57752471202E+02  0.46397225666E+03  0.46036388544E+03 0.  0.
      99925    2    3    3    0    0  0.24212477673E+02 -0.87736773848E+02  0.11201024497E+03  0.30003507456E+03  0.26304137589E+03 0.  0.
         25    1    4    4    0    0  0.37311067586E+02 -0.26648718302E+02  0.83804383221E+02  0.15739425879E+03  0.12509000000E+03 0.  0.
         25    1    4    4    0    0 -0.13098589913E+02 -0.61088055545E+02  0.28205861751E+02  0.14264081578E+03  0.12509000000E+03 0.  0.
         25    1    3    3    0    0 -0.24212477673E+02  0.87736773848E+02 -0.54257773769E+02  0.16393718210E+03  0.12509000000E+03 0.  0.
<mgrwt>
<rscale>  2 0.46036389E+03</rscale>
<asrwt>0</asrwt>
<pdfrwt beam="1">  1       21 0.38362113E-01 0.46036389E+03</pdfrwt>
<pdfrwt beam="2">  1       21 0.29869102E-01 0.46036389E+03</pdfrwt>
<totfact> 0.65063949E+04</totfact>
</mgrwt>
</event>
<event>
 7    0  0.4709932E-002  0.4514110E+03  0.7546771E-02  0.1027302E+00
         21   -1    0    0  502  501  0.00000000000E+00  0.00000000000E+00  0.27092061559E+03  0.27092061559E+03  0.00000000000E+00 0.  1.
         21   -1    0    0  501  502 -0.00000000000E+00 -0.00000000000E+00 -0.18803656707E+03  0.18803656707E+03  0.00000000000E+00 0.  1.
      99926    2    1    2    0    0  0.71054273576E-14  0.00000000000E+00  0.82884048521E+02  0.45895718267E+03  0.45141104331E+03 0.  0.
      99925    2    3    3    0    0 -0.61541576086E+02 -0.40972155170E+02  0.13473986200E+03  0.30467621632E+03  0.26307163148E+03 0.  0.
         25    1    4    4    0    0 -0.65866959347E+02  0.43188043523E+00  0.72792620449E+02  0.15901231571E+03  0.12509000000E+03 0.  0.
         25    1    4    4    0    0  0.43253832613E+01 -0.41404035605E+02  0.61947241555E+02  0.14566390061E+03  0.12509000000E+03 0.  0.
         25    1    3    3    0    0  0.61541576086E+02  0.40972155170E+02 -0.51855813483E+02  0.15428096635E+03  0.12509000000E+03 0.  0.
<mgrwt>
<rscale>  2 0.45141104E+03</rscale>
<asrwt>0</asrwt>
<pdfrwt beam="1">  1       21 0.39841267E-01 0.45141104E+03</pdfrwt>
<pdfrwt beam="2">  1       21 0.27652436E-01 0.45141104E+03</pdfrwt>
<totfact> 0.70243825E+04</totfact>
</mgrwt>
</event>
<event>
 7    0  0.4709932E-002  0.4323935E+03  0.7546771E-02  0.1033107E+00
         21   -1    0    0  502  501  0.00000000000E+00  0.00000000000E+00  0.27372749477E+03  0.27372749477E+03  0.00000000000E+00 0.  1.
         21   -1    0    0  501  502 -0.00000000000E+00 -0.00000000000E+00 -0.17075754894E+03  0.17075754894E+03  0.00000000000E+00 0.  1.
      99926    2    1    2    0    0  0.00000000000E+00  0.00000000000E+00  0.10296994583E+03  0.44448504371E+03  0.43239350635E+03 0.  0.
      99925    2    3    3    0    0 -0.26564218743E+02  0.71477735316E+02  0.16459710296E+02  0.27434905893E+03  0.26302425689E+03 0.  0.
         25    1    4    4    0    0  0.15402691689E+02  0.50062086097E+02  0.33249609673E+02  0.13962986793E+03  0.12509000000E+03 0.  0.
         25    1    3    3    0    0  0.26564218743E+02 -0.71477735316E+02  0.86510235530E+02  0.17013598477E+03  0.12509000000E+03 0.  0.
         25    1    4    4    0    0 -0.41966910433E+02  0.21415649219E+02 -0.16789899377E+02  0.13471919100E+03  0.12509000000E+03 0.  0.
<mgrwt>
<rscale>  2 0.43239351E+03</rscale>
<asrwt>0</asrwt>
<pdfrwt beam="1">  1       21 0.40254043E-01 0.43239351E+03</pdfrwt>
<pdfrwt beam="2">  1       21 0.25111404E-01 0.43239351E+03</pdfrwt>
<totfact> 0.83354299E+04</totfact>
</mgrwt>
</event>
<event>
 7    0  0.4709932E-002  0.4264709E+03  0.7546771E-02  0.1034981E+00
         21   -1    0    0  502  501  0.00000000000E+00  0.00000000000E+00  0.26398402247E+04  0.26398402247E+04  0.00000000000E+00 0.  1.
         21   -1    0    0  501  502 -0.00000000000E+00 -0.00000000000E+00 -0.17224285086E+02  0.17224285086E+02  0.00000000000E+00 0.  1.
      99926    2    1    2    0    0  0.00000000000E+00  0.00000000000E+00  0.26226159396E+04  0.26570645098E+04  0.42647091630E+03 0.  0.
      99925    2    3    3    0    0 -0.78003103443E+02  0.17465411384E+02  0.15447634403E+04  0.15690373763E+04  0.26304881128E+03 0.  0.
         25    1    3    3    0    0  0.78003103443E+02 -0.17465411384E+02  0.10778524994E+04  0.10880271335E+04  0.12509000000E+03 0.  0.
         25    1    4    4    0    0 -0.60005102019E+02  0.44271351495E+02  0.84030891203E+03  0.85283476745E+03  0.12509000000E+03 0.  0.
         25    1    4    4    0    0 -0.17998001423E+02 -0.26805940111E+02  0.70445452825E+03  0.71620260887E+03  0.12509000000E+03 0.  0.
<mgrwt>
<rscale>  2 0.42647092E+03</rscale>
<asrwt>0</asrwt>
<pdfrwt beam="1">  1       21 0.38821152E+00 0.42647092E+03</pdfrwt>
<pdfrwt beam="2">  1       21 0.25329849E-02 0.42647092E+03</pdfrwt>
<totfact> 0.71047061E+03</totfact>
</mgrwt>
</event>
<event>
 7    0  0.4709932E-002  0.4273046E+03  0.7546771E-02  0.1034715E+00
         21   -1    0    0  502  501  0.00000000000E+00  0.00000000000E+00  0.18651758320E+03  0.18651758320E+03  0.00000000000E+00 0.  1.
         21   -1    0    0  501  502 -0.00000000000E+00 -0.00000000000E+00 -0.24473459248E+03  0.24473459248E+03  0.00000000000E+00 0.  1.
      99926    2    1    2    0    0  0.14210854715E-13  0.00000000000E+00 -0.58217009281E+02  0.43125217567E+03  0.42730459728E+03 0.  0.
      99925    2    3    3    0    0  0.68550577313E+02 -0.49281490275E+02 -0.32812643031E+02  0.27821382474E+03  0.26305591762E+03 0.  0.
         25    1    3    3    0    0 -0.68550577313E+02  0.49281490275E+02 -0.25404366251E+02  0.15303835094E+03  0.12509000000E+03 0.  0.
         25    1    4    4    0    0  0.51968921355E+02  0.97108975005E+01 -0.33820261302E+01  0.13584556127E+03  0.12509000000E+03 0.  0.
         25    1    4    4    0    0  0.16581655958E+02 -0.58992387775E+02 -0.29430616901E+02  0.14236826346E+03  0.12509000000E+03 0.  0.
<mgrwt>
<rscale>  2 0.42730460E+03</rscale>
<asrwt>0</asrwt>
<pdfrwt beam="1">  1       21 0.27429056E-01 0.42730460E+03</pdfrwt>
<pdfrwt beam="2">  1       21 0.35990381E-01 0.42730460E+03</pdfrwt>
<totfact> 0.88272138E+04</totfact>
</mgrwt>
</event>
<event>
 7    0  0.4709932E-002  0.4572895E+03  0.7546771E-02  0.1025570E+00
         21   -1    0    0  502  501  0.00000000000E+00  0.00000000000E+00  0.84086100775E+02  0.84086100775E+02  0.00000000000E+00 0.  1.
         21   -1    0    0  501  502 -0.00000000000E+00 -0.00000000000E+00 -0.62172496270E+03  0.62172496270E+03  0.00000000000E+00 0.  1.
      99926    2    1    2    0    0  0.00000000000E+00 -0.14210854715E-13 -0.53763886192E+03  0.70581106347E+03  0.45728952696E+03 0.  0.
      99925    2    3    3    0    0  0.19605524405E+02  0.10222467962E+03 -0.26064357477E+03  0.38455079685E+03  0.26288777182E+03 0.  0.
         25    1    4    4    0    0  0.26021952816E+02  0.36577311601E+02 -0.17308965633E+03  0.21822598145E+03  0.12509000000E+03 0.  0.
         25    1    4    4    0    0 -0.64164284102E+01  0.65647368017E+02 -0.87553918442E+02  0.16632481539E+03  0.12509000000E+03 0.  0.
         25    1    3    3    0    0 -0.19605524405E+02 -0.10222467962E+03 -0.27699528715E+03  0.32126026663E+03  0.12509000000E+03 0.  0.
<mgrwt>
<rscale>  2 0.45728953E+03</rscale>
<asrwt>0</asrwt>
<pdfrwt beam="1">  1       21 0.12365602E-01 0.45728953E+03</pdfrwt>
<pdfrwt beam="2">  1       21 0.91430148E-01 0.45728953E+03</pdfrwt>
<totfact> 0.51651752E+04</totfact>
</mgrwt>
</event>
<event>
 7    0  0.4709932E-002  0.4508710E+03  0.7546771E-02  0.1027463E+00
         21   -1    0    0  502  501  0.00000000000E+00  0.00000000000E+00  0.49019646658E+03  0.49019646658E+03  0.00000000000E+00 0. -1.
         21   -1    0    0  501  502 -0.00000000000E+00 -0.00000000000E+00 -0.10367507180E+03  0.10367507180E+03  0.00000000000E+00 0. -1.
      99926    2    1    2    0    0  0.00000000000E+00  0.00000000000E+00  0.38652139478E+03  0.59387153838E+03  0.45087095213E+03 0.  0.
      99925    2    3    3    0    0  0.37537983751E+02  0.38625823198E+02  0.11885262738E+03  0.29354649516E+03  0.26294969736E+03 0.  0.
         25    1    4    4    0    0  0.45489543637E+02  0.11531457926E+01  0.33232814218E+02  0.13719532196E+03  0.12509000000E+03 0.  0.
         25    1    3    3    0    0 -0.37537983751E+02 -0.38625823198E+02  0.26766876740E+03  0.30032504321E+03  0.12509000000E+03 0.  0.
         25    1    4    4    0    0 -0.79515598864E+01  0.37472677406E+02  0.85619813166E+02  0.15635117321E+03  0.12509000000E+03 0.  0.
<mgrwt>
<rscale>  2 0.45087095E+03</rscale>
<asrwt>0</asrwt>
<pdfrwt beam="1">  1       21 0.72087715E-01 0.45087095E+03</pdfrwt>
<pdfrwt beam="2">  1       21 0.15246334E-01 0.45087095E+03</pdfrwt>
<totfact> 0.61024045E+04</totfact>
</mgrwt>
</event>
<event>
 7    0  0.4709932E-002  0.4537224E+03  0.7546771E-02  0.1026618E+00
         21   -1    0    0  502  501  0.00000000000E+00  0.00000000000E+00  0.43082271299E+03  0.43082271299E+03  0.00000000000E+00 0.  1.
         21   -1    0    0  501  502 -0.00000000000E+00 -0.00000000000E+00 -0.11945983206E+03  0.11945983206E+03  0.00000000000E+00 0.  1.
      99926    2    1    2    0    0  0.00000000000E+00  0.00000000000E+00  0.31136288093E+03  0.55028254505E+03  0.45372242149E+03 0.  0.
      99925    2    3    3    0    0 -0.89437702825E+02 -0.23477578054E+02  0.27268049375E+03  0.38998864455E+03  0.26303268210E+03 0.  0.
         25    1    4    4    0    0 -0.85879209619E+02 -0.24037256693E+02  0.15379443546E+03  0.21737816089E+03  0.12509000000E+03 0.  0.
         25    1    3    3    0    0  0.89437702825E+02  0.23477578054E+02  0.38682387176E+02  0.16029390049E+03  0.12509000000E+03 0.  0.
         25    1    4    4    0    0 -0.35584932059E+01  0.55967863907E+00  0.11888605829E+03  0.17261048366E+03  0.12509000000E+03 0.  0.
<mgrwt>
<rscale>  2 0.45372242E+03</rscale>
<asrwt>0</asrwt>
<pdfrwt beam="1">  1       21 0.63356281E-01 0.45372242E+03</pdfrwt>
<pdfrwt beam="2">  1       21 0.17567623E-01 0.45372242E+03</pdfrwt>
<totfact> 0.62476970E+04</totfact>
</mgrwt>
</event>
<event>
 7    0  0.4709932E-002  0.4417632E+03  0.7546771E-02  0.1030207E+00
         21   -1    0    0  502  501  0.00000000000E+00  0.00000000000E+00  0.13040377347E+03  0.13040377347E+03  0.00000000000E+00 0.  1.
         21   -1    0    0  501  502 -0.00000000000E+00 -0.00000000000E+00 -0.37413543882E+03  0.37413543882E+03  0.00000000000E+00 0.  1.
      99926    2    1    2    0    0  0.71054273576E-14  0.00000000000E+00 -0.24373166535E+03  0.50453921229E+03  0.44176316284E+03 0.  0.
      99925    2    3    3    0    0 -0.37758790140E+02 -0.34147921505E+02 -0.25394713672E+03  0.36910040422E+03  0.26297177295E+03 0.  0.
         25    1    4    4    0    0  0.21717227664E+02 -0.16416876830E+02 -0.12852574926E+03  0.18140432229E+03  0.12509000000E+03 0.  0.
         25    1    4    4    0    0 -0.59476017804E+02 -0.17731044674E+02 -0.12542138746E+03  0.18769608193E+03  0.12509000000E+03 0.  0.
         25    1    3    3    0    0  0.37758790140E+02  0.34147921505E+02  0.10215471366E+02  0.13543880807E+03  0.12509000000E+03 0.  0.
<mgrwt>
<rscale>  2 0.44176316E+03</rscale>
<asrwt>0</asrwt>
<pdfrwt beam="1">  1       21 0.19177026E-01 0.44176316E+03</pdfrwt>
<pdfrwt beam="2">  1       21 0.55019917E-01 0.44176316E+03</pdfrwt>
<totfact> 0.72249169E+04</totfact>
</mgrwt>
</event>
<event>
 7    0  0.4709932E-002  0.4555373E+03  0.7546771E-02  0.1026084E+00
         21   -1    0    0  502  501  0.00000000000E+00  0.00000000000E+00  0.18538291917E+03  0.18538291917E+03  0.00000000000E+00 0. -1.
         21   -1    0    0  501  502 -0.00000000000E+00 -0.00000000000E+00 -0.27984546363E+03  0.27984546363E+03  0.00000000000E+00 0. -1.
      99926    2    1    2    0    0  0.00000000000E+00  0.00000000000E+00 -0.94462544462E+02  0.46522838280E+03  0.45553734848E+03 0.  0.
      99925    2    3    3    0    0 -0.28509837378E+02 -0.10914375658E+03 -0.45023435332E+02  0.28968094181E+03  0.26298815162E+03 0.  0.
         25    1    4    4    0    0 -0.38836500753E+02 -0.49010144057E+02  0.95779592019E+01  0.14017672208E+03  0.12509000000E+03 0.  0.
         25    1    4    4    0    0  0.10326663374E+02 -0.60133612519E+02 -0.54601394533E+02  0.14950421973E+03  0.12509000000E+03 0.  0.
         25    1    3    3    0    0  0.28509837378E+02  0.10914375658E+03 -0.49439109131E+02  0.17554744099E+03  0.12509000000E+03 0.  0.
<mgrwt>
<rscale>  2 0.45553735E+03</rscale>
<asrwt>0</asrwt>
<pdfrwt beam="1">  1       21 0.27262195E-01 0.45553735E+03</pdfrwt>
<pdfrwt beam="2">  1       21 0.41153744E-01 0.45553735E+03</pdfrwt>
<totfact> 0.67504534E+04</totfact>
</mgrwt>
</event>
<event>
 7    0  0.4709932E-002  0.4637671E+03  0.7546771E-02  0.1023694E+00
         21   -1    0    0  502  501  0.00000000000E+00  0.00000000000E+00  0.10688427374E+03  0.10688427374E+03  0.00000000000E+00 0.  1.
         21   -1    0    0  501  502 -0.00000000000E+00 -0.00000000000E+00 -0.50306720725E+03  0.50306720725E+03  0.00000000000E+00 0.  1.
      99926    2    1    2    0    0  0.00000000000E+00 -0.35527136788E-14 -0.39618293352E+03  0.60995148099E+03  0.46376706691E+03 0.  0.
      99925    2    3    3    0    0 -0.77095655286E+02  0.19084151587E+02 -0.36796628996E+03  0.45911503984E+03  0.26282976306E+03 0.  0.
         25    1    4    4    0    0 -0.33852440073E+02 -0.26382815448E+02 -0.14875856200E+03  0.19904436319E+03  0.12509000000E+03 0.  0.
         25    1    4    4    0    0 -0.43243215213E+02  0.45466967035E+02 -0.21920772796E+03  0.26007067664E+03  0.12509000000E+03 0.  0.
         25    1    3    3    0    0  0.77095655286E+02 -0.19084151587E+02 -0.28216643555E+02  0.15083644115E+03  0.12509000000E+03 0.  0.
<mgrwt>
<rscale>  2 0.46376707E+03</rscale>
<asrwt>0</asrwt>
<pdfrwt beam="1">  1       21 0.15718276E-01 0.46376707E+03</pdfrwt>
<pdfrwt beam="2">  1       21 0.73980471E-01 0.46376707E+03</pdfrwt>
<totfact> 0.54216474E+04</totfact>
</mgrwt>
</event>
<event>
 7    0  0.4709932E-002  0.4333221E+03  0.7546771E-02  0.1032816E+00
         21   -1    0    0  502  501  0.00000000000E+00  0.00000000000E+00  0.11700500130E+04  0.11700500130E+04  0.00000000000E+00 0. -1.
         21   -1    0    0  501  502 -0.00000000000E+00 -0.00000000000E+00 -0.40119658828E+02  0.40119658828E+02  0.00000000000E+00 0. -1.
      99926    2    1    2    0    0  0.00000000000E+00  0.00000000000E+00  0.11299303541E+04  0.12101696718E+04  0.43332208498E+03 0.  0.
      99925    2    3    3    0    0 -0.72605630965E+02 -0.25985326960E+02  0.86355544579E+03  0.90594949698E+03  0.26281108855E+03 0.  0.
         25    1    4    4    0    0 -0.22188511780E+02 -0.19269735281E+02  0.54523130914E+03  0.56016813665E+03  0.12509000000E+03 0.  0.
         25    1    4    4    0    0 -0.50417119186E+02 -0.67155916790E+01  0.31832413664E+03  0.34578136032E+03  0.12509000000E+03 0.  0.
         25    1    3    3    0    0  0.72605630965E+02  0.25985326960E+02  0.26637490836E+03  0.30422017482E+03  0.12509000000E+03 0.  0.
<mgrwt>
<rscale>  2 0.43332208E+03</rscale>
<asrwt>0</asrwt>
<pdfrwt beam="1">  1       21 0.17206616E+00 0.43332208E+03</pdfrwt>
<pdfrwt beam="2">  1       21 0.58999506E-02 0.43332208E+03</pdfrwt>
<totfact> 0.37829327E+04</totfact>
</mgrwt>
</event>
<event>
 7    0  0.4709932E-002  0.4047318E+03  0.7546771E-02  0.1042153E+00
         21   -1    0    0  502  501  0.00000000000E+00  0.00000000000E+00  0.53256608156E+02  0.53256608156E+02  0.00000000000E+00 0. -1.
         21   -1    0    0  501  502 -0.00000000000E+00 -0.00000000000E+00 -0.76895545390E+03  0.76895545390E+03  0.00000000000E+00 0. -1.
      99926    2    1    2    0    0  0.00000000000E+00 -0.71054273576E-14 -0.71569884575E+03  0.82221206206E+03  0.40473180897E+03 0.  0.
      99925    2    3    3    0    0  0.33662167581E+02  0.38097208969E+02 -0.43868340314E+03  0.51404067727E+03  0.26307822191E+03 0.  0.
         25    1    4    4    0    0 -0.48570607758E+01  0.39448495775E+02 -0.16644548112E+03  0.21197023645E+03  0.12509000000E+03 0.  0.
         25    1    4    4    0    0  0.38519228357E+02 -0.13512868064E+01 -0.27223792202E+03  0.30207044082E+03  0.12509000000E+03 0.  0.
         25    1    3    3    0    0 -0.33662167581E+02 -0.38097208969E+02 -0.27701544261E+03  0.30817138478E+03  0.12509000000E+03 0.  0.
<mgrwt>
<rscale>  2 0.40473181E+03</rscale>
<asrwt>0</asrwt>
<pdfrwt beam="1">  1       21 0.78318543E-02 0.40473181E+03</pdfrwt>
<pdfrwt beam="2">  1       21 0.11308168E+00 0.40473181E+03</pdfrwt>
<totfact> 0.70749105E+04</totfact>
</mgrwt>
</event>
<event>
 7    0  0.4709932E-002  0.4746387E+03  0.7546771E-02  0.1020619E+00
         21   -1    0    0  502  501  0.00000000000E+00  0.00000000000E+00  0.47334104264E+03  0.47334104264E+03  0.00000000000E+00 0. -1.
         21   -1    0    0  501  502 -0.00000000000E+00 -0.00000000000E+00 -0.11898497046E+03  0.11898497046E+03  0.00000000000E+00 0. -1.
      99926    2    1    2    0    0  0.00000000000E+00  0.00000000000E+00  0.35435607218E+03  0.59232601310E+03  0.47463868353E+03 0.  0.
      99925    2    3    3    0    0 -0.67679238010E+02 -0.10018296192E+03  0.28180191485E+03  0.40383537948E+03  0.26278049659E+03 0.  0.
         25    1    4    4    0    0 -0.54669182274E+02 -0.76527087485E+02  0.11816271908E+03  0.19609959431E+03  0.12509000000E+03 0.  0.
         25    1    3    3    0    0  0.67679238010E+02  0.10018296192E+03  0.72554157332E+02  0.18849063362E+03  0.12509000000E+03 0.  0.
         25    1    4    4    0    0 -0.13010055736E+02 -0.23655874431E+02  0.16363919577E+03  0.20773578517E+03  0.12509000000E+03 0.  0.
<mgrwt>
<rscale>  2 0.47463868E+03</rscale>
<asrwt>0</asrwt>
<pdfrwt beam="1">  1       21 0.69608976E-01 0.47463868E+03</pdfrwt>
<pdfrwt beam="2">  1       21 0.17497790E-01 0.47463868E+03</pdfrwt>
<totfact> 0.50797222E+04</totfact>
</mgrwt>
</event>
<event>
 7    0  0.4709932E-002  0.4539549E+03  0.7546771E-02  0.1026549E+00
         21   -1    0    0  502  501  0.00000000000E+00  0.00000000000E+00  0.17960478947E+04  0.17960478947E+04  0.00000000000E+00 0.  1.
         21   -1    0    0  501  502 -0.00000000000E+00 -0.00000000000E+00 -0.28684516063E+02  0.28684516063E+02  0.00000000000E+00 0.  1.
      99926    2    1    2    0    0 -0.71054273576E-14 -0.14210854715E-13  0.17673633787E+04  0.18247324108E+04  0.45395490827E+03 0.  0.
      99925    2    3    3    0    0  0.33492957357E+02 -0.10668285335E+03  0.11520039095E+04  0.11869097131E+04  0.26294229401E+03 0.  0.
         25    1    4    4    0    0  0.30098295338E+02 -0.12955560227E+02  0.50806532233E+03  0.52426294335E+03  0.12509000000E+03 0.  0.
         25    1    3    3    0    0 -0.33492957357E+02  0.10668285335E+03  0.61535946912E+03  0.63782269772E+03  0.12509000000E+03 0.  0.
         25    1    4    4    0    0  0.33946620192E+01 -0.93727293127E+02  0.64393858722E+03  0.66264676972E+03  0.12509000000E+03 0.  0.
<mgrwt>
<rscale>  2 0.45395491E+03</rscale>
<asrwt>0</asrwt>
<pdfrwt beam="1">  1       21 0.26412461E+00 0.45395491E+03</pdfrwt>
<pdfrwt beam="2">  1       21 0.42183124E-02 0.45395491E+03</pdfrwt>
<totfact> 0.16925967E+04</totfact>
</mgrwt>
</event>
<event>
 7    0  0.4709932E-002  0.4637103E+03  0.7546771E-02  0.1023711E+00
         21   -1    0    0  502  501  0.00000000000E+00  0.00000000000E+00  0.19612275756E+03  0.19612275756E+03  0.00000000000E+00 0. -1.
         21   -1    0    0  501  502 -0.00000000000E+00 -0.00000000000E+00 -0.27409781455E+03  0.27409781455E+03  0.00000000000E+00 0. -1.
      99926    2    1    2    0    0  0.00000000000E+00  0.00000000000E+00 -0.77975056991E+02  0.47022057211E+03  0.46371033730E+03 0.  0.
      99925    2    3    3    0    0  0.33898225048E+02 -0.18701572545E+02  0.67747993959E+02  0.27430846387E+03  0.26297624263E+03 0.  0.
         25    1    4    4    0    0 -0.21233460634E+02 -0.12383550542E+01  0.45020352013E+02  0.13463555834E+03  0.12509000000E+03 0.  0.
         25    1    3    3    0    0 -0.33898225048E+02  0.18701572545E+02 -0.14572305095E+03  0.19591210824E+03  0.12509000000E+03 0.  0.
         25    1    4    4    0    0  0.55131685682E+02 -0.17463217491E+02  0.22727641946E+02  0.13967290553E+03  0.12509000000E+03 0.  0.
<mgrwt>
<rscale>  2 0.46371034E+03</rscale>
<asrwt>0</asrwt>
<pdfrwt beam="1">  1       21 0.28841582E-01 0.46371034E+03</pdfrwt>
<pdfrwt beam="2">  1       21 0.40308502E-01 0.46371034E+03</pdfrwt>
<totfact> 0.62951266E+04</totfact>
</mgrwt>
</event>
<event>
 7    0  0.4709932E-002  0.4076878E+03  0.7546771E-02  0.1041150E+00
         21   -1    0    0  502  501  0.00000000000E+00  0.00000000000E+00  0.33481347041E+02  0.33481347041E+02  0.00000000000E+00 0. -1.
         21   -1    0    0  501  502 -0.00000000000E+00 -0.00000000000E+00 -0.12410593227E+04  0.12410593227E+04  0.00000000000E+00 0. -1.
      99926    2    1    2    0    0  0.71054273576E-14  0.17763568394E-14 -0.12075779757E+04  0.12745406697E+04  0.40768781136E+03 0.  0.
      99925    2    3    3    0    0  0.46353830309E+02  0.11851430246E+02 -0.69175659140E+03  0.74161633877E+03  0.26301801878E+03 0.  0.
         25    1    3    3    0    0 -0.46353830309E+02 -0.11851430246E+02 -0.51582138426E+03  0.53292433097E+03  0.12509000000E+03 0.  0.
         25    1    4    4    0    0  0.13289095456E+02  0.45062781098E+02 -0.33428249012E+03  0.35999936889E+03  0.12509000000E+03 0.  0.
         25    1    4    4    0    0  0.33064734853E+02 -0.33211350852E+02 -0.35747410128E+03  0.38161696988E+03  0.12509000000E+03 0.  0.
<mgrwt>
<rscale>  2 0.40768781E+03</rscale>
<asrwt>0</asrwt>
<pdfrwt beam="1">  1       21 0.49237273E-02 0.40768781E+03</pdfrwt>
<pdfrwt beam="2">  1       21 0.18250873E+00 0.40768781E+03</pdfrwt>
<totfact> 0.43946116E+04</totfact>
</mgrwt>
</event>
<event>
 7    0  0.4709932E-002  0.4539371E+03  0.7546771E-02  0.1026554E+00
         21   -1    0    0  502  501  0.00000000000E+00  0.00000000000E+00  0.70928205952E+02  0.70928205952E+02  0.00000000000E+00 0.  1.
         21   -1    0    0  501  502 -0.00000000000E+00 -0.00000000000E+00 -0.72629373556E+03  0.72629373556E+03  0.00000000000E+00 0.  1.
      99926    2    1    2    0    0  0.00000000000E+00  0.00000000000E+00 -0.65536552961E+03  0.79722194151E+03  0.45393705140E+03 0.  0.
      99925    2    3    3    0    0 -0.93490914311E+01  0.95131598892E+02 -0.30967575336E+03  0.41737150237E+03  0.26298758934E+03 0.  0.
         25    1    3    3    0    0  0.93490914311E+01 -0.95131598892E+02 -0.34568977625E+03  0.37985043915E+03  0.12509000000E+03 0.  0.
         25    1    4    4    0    0 -0.36661507900E+02  0.72614618128E+02 -0.15174493581E+03  0.21281678170E+03  0.12509000000E+03 0.  0.
         25    1    4    4    0    0  0.27312416469E+02  0.22516980764E+02 -0.15793081755E+03  0.20455472067E+03  0.12509000000E+03 0.  0.
<mgrwt>
<rscale>  2 0.45393705E+03</rscale>
<asrwt>0</asrwt>
<pdfrwt beam="1">  1       21 0.10430618E-01 0.45393705E+03</pdfrwt>
<pdfrwt beam="2">  1       21 0.10680791E+00 0.45393705E+03</pdfrwt>
<totfact> 0.48301144E+04</totfact>
</mgrwt>
</event>
<event>
 7    0  0.4709932E-002  0.4780392E+03  0.7546771E-02  0.1019675E+00
         21   -1    0    0  502  501  0.00000000000E+00  0.00000000000E+00  0.61574689369E+02  0.61574689369E+02  0.00000000000E+00 0. -1.
         21   -1    0    0  501  502 -0.00000000000E+00 -0.00000000000E+00 -0.92782244760E+03  0.92782244760E+03  0.00000000000E+00 0. -1.
      99926    2    1    2    0    0  0.35527136788E-14  0.00000000000E+00 -0.86624775823E+03  0.98939713697E+03  0.47803924107E+03 0.  0.
      99925    2    3    3    0    0 -0.29507881643E+02  0.37486444996E+02 -0.79298152737E+03  0.83678194336E+03  0.26288470731E+03 0.  0.
         25    1    4    4    0    0 -0.36734219454E+02  0.34710193095E+02 -0.50499386350E+03  0.52270499391E+03  0.12509000000E+03 0.  0.
         25    1    3    3    0    0  0.29507881643E+02 -0.37486444996E+02 -0.73266230861E+02  0.15261519361E+03  0.12509000000E+03 0.  0.
         25    1    4    4    0    0  0.72263378114E+01  0.27762519012E+01 -0.28798766387E+03  0.31407694945E+03  0.12509000000E+03 0.  0.
<mgrwt>
<rscale>  2 0.47803924E+03</rscale>
<asrwt>0</asrwt>
<pdfrwt beam="1">  1       21 0.90551018E-02 0.47803924E+03</pdfrwt>
<pdfrwt beam="2">  1       21 0.13644447E+00 0.47803924E+03</pdfrwt>
<totfact> 0.33191329E+04</totfact>
</mgrwt>
</event>
<event>
 7    0  0.4709932E-002  0.4551249E+03  0.7546771E-02  0.1026205E+00
         21   -1    0    0  502  501  0.00000000000E+00  0.00000000000E+00  0.44583910804E+02  0.44583910804E+02  0.00000000000E+00 0.  1.
         21   -1    0    0  501  502 -0.00000000000E+00 -0.00000000000E+00 -0.11615104862E+04  0.11615104862E+04  0.00000000000E+00 0.  1.
      99926    2    1    2    0    0  0.00000000000E+00 -0.14210854715E-13 -0.11169265754E+04  0.12060943970E+04  0.45512494949E+03 0.  0.
      99925    2    3    3    0    0 -0.83673630794E+02  0.76332753497E+02 -0.69384582054E+03  0.75060257602E+03  0.26297193521E+03 0.  0.
         25    1    4    4    0    0 -0.69495314674E+02  0.49816795386E+02 -0.45115967446E+03  0.47592422907E+03  0.12509000000E+03 0.  0.
         25    1    3    3    0    0  0.83673630794E+02 -0.76332753497E+02 -0.42308075482E+03  0.45549182094E+03  0.12509000000E+03 0.  0.
         25    1    4    4    0    0 -0.14178316120E+02  0.26515958111E+02 -0.24268614608E+03  0.27467834695E+03  0.12509000000E+03 0.  0.
<mgrwt>
<rscale>  2 0.45512495E+03</rscale>
<asrwt>0</asrwt>
<pdfrwt beam="1">  1       21 0.65564574E-02 0.45512495E+03</pdfrwt>
<pdfrwt beam="2">  1       21 0.17081037E+00 0.45512495E+03</pdfrwt>
<totfact> 0.31932295E+04</totfact>
</mgrwt>
</event>
<event>
 7    0  0.4709932E-002  0.4528157E+03  0.7546771E-02  0.1026886E+00
         21   -1    0    0  502  501  0.00000000000E+00  0.00000000000E+00  0.11646894286E+03  0.11646894286E+03  0.00000000000E+00 0.  1.
         21   -1    0    0  501  502 -0.00000000000E+00 -0.00000000000E+00 -0.44012165663E+03  0.44012165663E+03  0.00000000000E+00 0.  1.
      99926    2    1    2    0    0  0.14210854715E-13 -0.17763568394E-14 -0.32365271377E+03  0.55659059949E+03  0.45281565379E+03 0.  0.
      99925    2    3    3    0    0 -0.84043821902E+02 -0.12799064656E+02 -0.11478196011E+03  0.29871140319E+03  0.26234790636E+03 0.  0.
         25    1    4    4    0    0 -0.83066199935E+02 -0.23079407289E+01 -0.65850666773E+02  0.16397907969E+03  0.12509000000E+03 0.  0.
         25    1    4    4    0    0 -0.97762196640E+00 -0.10491123927E+02 -0.48931293342E+02  0.13473232349E+03  0.12509000000E+03 0.  0.
         25    1    3    3    0    0  0.84043821902E+02  0.12799064656E+02 -0.20887075366E+03  0.25787919631E+03  0.12509000000E+03 0.  0.
<mgrwt>
<rscale>  2 0.45281565E+03</rscale>
<asrwt>0</asrwt>
<pdfrwt beam="1">  1       21 0.17127786E-01 0.45281565E+03</pdfrwt>
<pdfrwt beam="2">  1       21 0.64723773E-01 0.45281565E+03</pdfrwt>
<totfact> 0.62506174E+04</totfact>
</mgrwt>
</event>
<event>
 7    0  0.4709932E-002  0.4200108E+03  0.7546771E-02  0.1037063E+00
         21   -1    0    0  502  501  0.00000000000E+00  0.00000000000E+00  0.22404082499E+03  0.22404082499E+03  0.00000000000E+00 0.  1.
         21   -1    0    0  501  502 -0.00000000000E+00 -0.00000000000E+00 -0.19684925282E+03  0.19684925282E+03  0.00000000000E+00 0.  1.
      99926    2    1    2    0    0  0.00000000000E+00  0.00000000000E+00  0.27191572171E+02  0.42089007780E+03  0.42001080462E+03 0.  0.
      99925    2    3    3    0    0 -0.13680203622E+02 -0.12273744904E+02 -0.55801950867E+02  0.26965110878E+03  0.26317307986E+03 0.  0.
         25    1    3    3    0    0  0.13680203622E+02  0.12273744904E+02  0.82993523038E+02  0.15123896902E+03  0.12509000000E+03 0.  0.
         25    1    4    4    0    0 -0.91381880678E+01 -0.18455585843E+02 -0.67778479277E+02  0.14375515811E+03  0.12509000000E+03 0.  0.
         25    1    4    4    0    0 -0.45420155541E+01  0.61818409396E+01  0.11976528410E+02  0.12589595067E+03  0.12509000000E+03 0.  0.
<mgrwt>
<rscale>  2 0.42001080E+03</rscale>
<asrwt>0</asrwt>
<pdfrwt beam="1">  1       21 0.32947180E-01 0.42001080E+03</pdfrwt>
<pdfrwt beam="2">  1       21 0.28948419E-01 0.42001080E+03</pdfrwt>
<totfact> 0.94997997E+04</totfact>
</mgrwt>
</event>
<event>
 7    0  0.4709932E-002  0.4580632E+03  0.7546771E-02  0.1025344E+00
         21   -1    0    0  502  501  0.00000000000E+00  0.00000000000E+00  0.12292129406E+03  0.12292129406E+03  0.00000000000E+00 0. -1.
         21   -1    0    0  501  502 -0.00000000000E+00 -0.00000000000E+00 -0.42674042290E+03  0.42674042290E+03  0.00000000000E+00 0. -1.
      99926    2    1    2    0    0  0.00000000000E+00  0.00000000000E+00 -0.30381912884E+03  0.54966171696E+03  0.45806324896E+03 0.  0.
      99925    2    3    3    0    0 -0.60460362532E+02  0.81949869606E+02 -0.25745159494E+03  0.38182640225E+03  0.26294265753E+03 0.  0.
         25    1    4    4    0    0 -0.34781139959E+01  0.78754974478E+01 -0.10406441642E+03  0.16294487289E+03  0.12509000000E+03 0.  0.
         25    1    3    3    0    0  0.60460362532E+02 -0.81949869606E+02 -0.46367533900E+02  0.16783531472E+03  0.12509000000E+03 0.  0.
         25    1    4    4    0    0 -0.56982248537E+02  0.74074372158E+02 -0.15338717852E+03  0.21888152935E+03  0.12509000000E+03 0.  0.
<mgrwt>
<rscale>  2 0.45806325E+03</rscale>
<asrwt>0</asrwt>
<pdfrwt beam="1">  1       21 0.18076661E-01 0.45806325E+03</pdfrwt>
<pdfrwt beam="2">  1       21 0.62755944E-01 0.45806325E+03</pdfrwt>
<totfact> 0.60411343E+04</totfact>
</mgrwt>
</event>
<event>
 7    0  0.4709932E-002  0.4477034E+03  0.7546771E-02  0.1028409E+00
         21   -1    0    0  502  501  0.00000000000E+00  0.00000000000E+00  0.62404709858E+02  0.62404709858E+02  0.00000000000E+00 0. -1.
         21   -1    0    0  501  502 -0.00000000000E+00 -0.00000000000E+00 -0.80297743227E+03  0.80297743227E+03  0.00000000000E+00 0. -1.
      99926    2    1    2    0    0  0.71054273576E-14 -0.35527136788E-14 -0.74057272241E+03  0.86538214213E+03  0.44770335573E+03 0.  0.
      99925    2    3    3    0    0  0.39588525109E+02 -0.15125698585E+02 -0.65730874156E+03  0.70925259116E+03  0.26303691425E+03 0.  0.
         25    1    4    4    0    0  0.17886981087E+02  0.25179441440E+02 -0.25934160413E+03  0.28958508957E+03  0.12509000000E+03 0.  0.
         25    1    4    4    0    0  0.21701544022E+02 -0.40305140024E+02 -0.39796713742E+03  0.41966750159E+03  0.12509000000E+03 0.  0.
         25    1    3    3    0    0 -0.39588525109E+02  0.15125698585E+02 -0.83263980857E+02  0.15612955097E+03  0.12509000000E+03 0.  0.
<mgrwt>
<rscale>  2 0.44770336E+03</rscale>
<asrwt>0</asrwt>
<pdfrwt beam="1">  1       21 0.91771628E-02 0.44770336E+03</pdfrwt>
<pdfrwt beam="2">  1       21 0.11808492E+00 0.44770336E+03</pdfrwt>
<totfact> 0.47414463E+04</totfact>
</mgrwt>
</event>
<event>
 7    0  0.4709932E-002  0.4560556E+03  0.7546771E-02  0.1025931E+00
         21   -1    0    0  502  501  0.00000000000E+00  0.00000000000E+00  0.11360638968E+04  0.11360638968E+04  0.00000000000E+00 0.  1.
         21   -1    0    0  501  502 -0.00000000000E+00 -0.00000000000E+00 -0.45769156336E+02  0.45769156336E+02  0.00000000000E+00 0.  1.
      99926    2    1    2    0    0  0.00000000000E+00 -0.35527136788E-14  0.10902947404E+04  0.11818330531E+04  0.45605563739E+03 0.  0.
      99925    2    3    3    0    0  0.16493992546E+02 -0.24253965872E+02  0.97146428850E+03  0.10068230789E+04  0.26284889538E+03 0.  0.
         25    1    3    3    0    0 -0.16493992546E+02  0.24253965872E+02  0.11883045193E+03  0.17500997416E+03  0.12509000000E+03 0.  0.
         25    1    4    4    0    0  0.24866218909E+01 -0.51966469303E+02  0.48291133419E+03  0.50155514354E+03  0.12509000000E+03 0.  0.
         25    1    4    4    0    0  0.14007370655E+02  0.27712503431E+02  0.48855295431E+03  0.50526793540E+03  0.12509000000E+03 0.  0.
<mgrwt>
<rscale>  2 0.45605564E+03</rscale>
<asrwt>0</asrwt>
<pdfrwt beam="1">  1       21 0.16706820E+00 0.45605564E+03</pdfrwt>
<pdfrwt beam="2">  1       21 0.67307590E-02 0.45605564E+03</pdfrwt>
<totfact> 0.32469239E+04</totfact>
</mgrwt>
</event>
<event>
 7    0  0.4709932E-002  0.4917089E+03  0.7546771E-02  0.1015966E+00
         21   -1    0    0  502  501  0.00000000000E+00  0.00000000000E+00  0.93973294683E+02  0.93973294683E+02  0.00000000000E+00 0.  1.
         21   -1    0    0  501  502 -0.00000000000E+00 -0.00000000000E+00 -0.64320826418E+03  0.64320826418E+03  0.00000000000E+00 0.  1.
      99926    2    1    2    0    0  0.55511151231E-15  0.28421709430E-13 -0.54923496950E+03  0.73718155887E+03  0.49170885594E+03 0.  0.
      99925    2    3    3    0    0 -0.66136954754E+00 -0.13601061513E+03 -0.26061688448E+03  0.39447580762E+03  0.26304120872E+03 0.  0.
         25    1    3    3    0    0  0.66136954754E+00  0.13601061513E+03 -0.28861808502E+03  0.34270575125E+03  0.12509000000E+03 0.  0.
         25    1    4    4    0    0  0.15967621920E+02 -0.37470117482E+02 -0.15189196113E+03  0.20094190855E+03  0.12509000000E+03 0.  0.
         25    1    4    4    0    0 -0.16628991468E+02 -0.98540497644E+02 -0.10872492335E+03  0.19353389907E+03  0.12509000000E+03 0.  0.
<mgrwt>
<rscale>  2 0.49170886E+03</rscale>
<asrwt>0</asrwt>
<pdfrwt beam="1">  1       21 0.13819601E-01 0.49170886E+03</pdfrwt>
<pdfrwt beam="2">  1       21 0.94589455E-01 0.49170886E+03</pdfrwt>
<totfact> 0.38537581E+04</totfact>
</mgrwt>
</event>
<event>
 7    0  0.4709932E-002  0.4492055E+03  0.7546771E-02  0.1027959E+00
         21   -1    0    0  502  501  0.00000000000E+00  0.00000000000E+00  0.74957380012E+03  0.74957380012E+03  0.00000000000E+00 0. -1.
         21   -1    0    0  501  502 -0.00000000000E+00 -0.00000000000E+00 -0.67300109429E+02  0.67300109429E+02  0.00000000000E+00 0. -1.
      99926    2    1    2    0    0  0.71054273576E-14  0.00000000000E+00  0.68227369069E+03  0.81687390955E+03  0.44920551543E+03 0.  0.
      99925    2    3    3    0    0  0.54802528727E+02 -0.78801421401E+02  0.34357880627E+03  0.44327691544E+03  0.26312553369E+03 0.  0.
         25    1    4    4    0    0  0.42818606420E+02 -0.74921249472E+02  0.15895013325E+03  0.21990743425E+03  0.12509000000E+03 0.  0.
         25    1    4    4    0    0  0.11983922306E+02 -0.38801719289E+01  0.18462867302E+03  0.22336948119E+03  0.12509000000E+03 0.  0.
         25    1    3    3    0    0 -0.54802528727E+02  0.78801421401E+02  0.33869488442E+03  0.37359699410E+03  0.12509000000E+03 0.  0.
<mgrwt>
<rscale>  2 0.44920552E+03</rscale>
<asrwt>0</asrwt>
<pdfrwt beam="1">  1       21 0.11023144E+00 0.44920552E+03</pdfrwt>
<pdfrwt beam="2">  1       21 0.98970753E-02 0.44920552E+03</pdfrwt>
<totfact> 0.49156706E+04</totfact>
</mgrwt>
</event>
<event>
 7    0  0.4709932E-002  0.4586405E+03  0.7546771E-02  0.1025176E+00
         21   -1    0    0  502  501  0.00000000000E+00  0.00000000000E+00  0.37950619945E+03  0.37950619945E+03  0.00000000000E+00 0. -1.
         21   -1    0    0  501  502 -0.00000000000E+00 -0.00000000000E+00 -0.13856894344E+03  0.13856894344E+03  0.00000000000E+00 0. -1.
      99926    2    1    2    0    0 -0.14210854715E-13  0.00000000000E+00  0.24093725601E+03  0.51807514290E+03  0.45864048268E+03 0.  0.
      99925    2    3    3    0    0  0.66139701258E+02 -0.81035400412E+02  0.20915829939E+03  0.35194685998E+03  0.26301749341E+03 0.  0.
         25    1    4    4    0    0  0.69341660357E+02 -0.58517151790E+02  0.97369073993E+02  0.18264930217E+03  0.12509000000E+03 0.  0.
         25    1    4    4    0    0 -0.32019590987E+01 -0.22518248622E+02  0.11178922540E+03  0.16929755780E+03  0.12509000000E+03 0.  0.
         25    1    3    3    0    0 -0.66139701258E+02  0.81035400412E+02  0.31778956622E+02  0.16612828292E+03  0.12509000000E+03 0.  0.
<mgrwt>
<rscale>  2 0.45864048E+03</rscale>
<asrwt>0</asrwt>
<pdfrwt beam="1">  1       21 0.55809735E-01 0.45864048E+03</pdfrwt>
<pdfrwt beam="2">  1       21 0.20377786E-01 0.45864048E+03</pdfrwt>
<totfact> 0.62202276E+04</totfact>
</mgrwt>
</event>
<event>
 7    0  0.4709932E-002  0.4530551E+03  0.7546771E-02  0.1026815E+00
         21   -1    0    0  502  501  0.00000000000E+00  0.00000000000E+00  0.38091522943E+03  0.38091522943E+03  0.00000000000E+00 0. -1.
         21   -1    0    0  501  502 -0.00000000000E+00 -0.00000000000E+00 -0.13471431000E+03  0.13471431000E+03  0.00000000000E+00 0. -1.
      99926    2    1    2    0    0  0.00000000000E+00  0.00000000000E+00  0.24620091944E+03  0.51562953943E+03  0.45305510615E+03 0.  0.
      99925    2    3    3    0    0 -0.17628375283E+02  0.99064728128E+02  0.20976985005E+03  0.35101085614E+03  0.26283198276E+03 0.  0.
         25    1    4    4    0    0 -0.12546323534E+02  0.83849195534E+01  0.10785069724E+03  0.16585233826E+03  0.12509000000E+03 0.  0.
         25    1    3    3    0    0  0.17628375283E+02 -0.99064728128E+02  0.36431069384E+02  0.16461868330E+03  0.12509000000E+03 0.  0.
         25    1    4    4    0    0 -0.50820517496E+01  0.90679808574E+02  0.10191915282E+03  0.18515851788E+03  0.12509000000E+03 0.  0.
<mgrwt>
<rscale>  2 0.45305511E+03</rscale>
<asrwt>0</asrwt>
<pdfrwt beam="1">  1       21 0.56016945E-01 0.45305511E+03</pdfrwt>
<pdfrwt beam="2">  1       21 0.19810928E-01 0.45305511E+03</pdfrwt>
<totfact> 0.65186172E+04</totfact>
</mgrwt>
</event>
<event>
 7    0  0.4709932E-002  0.4443960E+03  0.7546771E-02  0.1029407E+00
         21   -1    0    0  502  501  0.00000000000E+00  0.00000000000E+00  0.99149860858E+02  0.99149860858E+02  0.00000000000E+00 0. -1.
         21   -1    0    0  501  502 -0.00000000000E+00 -0.00000000000E+00 -0.49795272669E+03  0.49795272669E+03  0.00000000000E+00 0. -1.
      99926    2    1    2    0    0  0.14210854715E-13  0.71054273576E-14 -0.39880286583E+03  0.59710258755E+03  0.44439596562E+03 0.  0.
      99925    2    3    3    0    0  0.81428375536E+02  0.60263921857E+02 -0.22911073987E+03  0.36321106070E+03  0.26299852256E+03 0.  0.
         25    1    4    4    0    0  0.19348255864E+02  0.53418150839E+02 -0.80798536609E+02  0.15938558737E+03  0.12509000000E+03 0.  0.
         25    1    4    4    0    0  0.62080119671E+02  0.68457710178E+01 -0.14831220326E+03  0.20382547332E+03  0.12509000000E+03 0.  0.
         25    1    3    3    0    0 -0.81428375536E+02 -0.60263921857E+02 -0.16969212596E+03  0.23389152685E+03  0.12509000000E+03 0.  0.
<mgrwt>
<rscale>  2 0.44439597E+03</rscale>
<asrwt>0</asrwt>
<pdfrwt beam="1">  1       21 0.14580862E-01 0.44439597E+03</pdfrwt>
<pdfrwt beam="2">  1       21 0.73228342E-01 0.44439597E+03</pdfrwt>
<totfact> 0.64057891E+04</totfact>
</mgrwt>
</event>
<event>
 7    0  0.4709932E-002  0.4532074E+03  0.7546771E-02  0.1026770E+00
         21   -1    0    0  502  501  0.00000000000E+00  0.00000000000E+00  0.91557414988E+02  0.91557414988E+02  0.00000000000E+00 0. -1.
         21   -1    0    0  501  502 -0.00000000000E+00 -0.00000000000E+00 -0.56084198970E+03  0.56084198970E+03  0.00000000000E+00 0. -1.
      99926    2    1    2    0    0 -0.14210854715E-13  0.71054273576E-14 -0.46928457471E+03  0.65239940468E+03  0.45320742621E+03 0.  0.
      99925    2    3    3    0    0  0.91315012424E+02 -0.57297519847E+02 -0.33562519278E+03  0.43995229185E+03  0.26323432869E+03 0.  0.
         25    1    4    4    0    0  0.62718994196E+01 -0.20128313325E+02 -0.12602891811E+03  0.17881633600E+03  0.12509000000E+03 0.  0.
         25    1    3    3    0    0 -0.91315012424E+02  0.57297519847E+02 -0.13365938193E+03  0.21244711284E+03  0.12509000000E+03 0.  0.
         25    1    4    4    0    0  0.85043113004E+02 -0.37169206522E+02 -0.20959627467E+03  0.26113595585E+03  0.12509000000E+03 0.  0.
<mgrwt>
<rscale>  2 0.45320743E+03</rscale>
<asrwt>0</asrwt>
<pdfrwt beam="1">  1       21 0.13464326E-01 0.45320743E+03</pdfrwt>
<pdfrwt beam="2">  1       21 0.82476761E-01 0.45320743E+03</pdfrwt>
<totfact> 0.56356144E+04</totfact>
</mgrwt>
</event>
<event>
 7    0  0.4709932E-002  0.4297320E+03  0.7546771E-02  0.1033945E+00
         21   -1    0    0  502  501  0.00000000000E+00  0.00000000000E+00  0.18818400674E+04  0.18818400674E+04  0.00000000000E+00 0. -1.
         21   -1    0    0  501  502 -0.00000000000E+00 -0.00000000000E+00 -0.24533116388E+02  0.24533116388E+02  0.00000000000E+00 0. -1.
      99926    2    1    2    0    0  0.00000000000E+00  0.71054273576E-14  0.18573069510E+04  0.19063731838E+04  0.42973201602E+03 0.  0.
      99925    2    3    3    0    0  0.52466314497E+02  0.55285075096E+02  0.10079177521E+04  0.10444458824E+04  0.26298260859E+03 0.  0.
         25    1    4    4    0    0  0.55810889952E+02  0.11572061186E+02  0.59946258914E+03  0.61502168410E+03  0.12509000000E+03 0.  0.
         25    1    3    3    0    0 -0.52466314497E+02 -0.55285075096E+02  0.84938919890E+03  0.86192730146E+03  0.12509000000E+03 0.  0.
         25    1    4    4    0    0 -0.33445754545E+01  0.43713013910E+02  0.40845516300E+03  0.42942419826E+03  0.12509000000E+03 0.  0.
<mgrwt>
<rscale>  2 0.42973202E+03</rscale>
<asrwt>0</asrwt>
<pdfrwt beam="1">  1       21 0.27674109E+00 0.42973202E+03</pdfrwt>
<pdfrwt beam="2">  1       21 0.36078125E-02 0.42973202E+03</pdfrwt>
<totfact> 0.18707907E+04</totfact>
</mgrwt>
</event>
<event>
 7    0  0.4709932E-002  0.4566135E+03  0.7546771E-02  0.1025768E+00
         21   -1    0    0  502  501  0.00000000000E+00  0.00000000000E+00  0.11679063980E+04  0.11679063980E+04  0.00000000000E+00 0.  1.
         21   -1    0    0  501  502 -0.00000000000E+00 -0.00000000000E+00 -0.44630268055E+02  0.44630268055E+02  0.00000000000E+00 0.  1.
      99926    2    1    2    0    0  0.00000000000E+00 -0.17763568394E-14  0.11232761299E+04  0.12125366660E+04  0.45661351537E+03 0.  0.
      99925    2    3    3    0    0  0.29662623230E+02 -0.12040943458E+02  0.41410014991E+03  0.49170177907E+03  0.26318596058E+03 0.  0.
         25    1    4    4    0    0  0.48688752243E+02 -0.26256580943E+02  0.23599311172E+03  0.27276410966E+03  0.12509000000E+03 0.  0.
         25    1    3    3    0    0 -0.29662623230E+02  0.12040943458E+02  0.70917598002E+03  0.72083488697E+03  0.12509000000E+03 0.  0.
         25    1    4    4    0    0 -0.19026129013E+02  0.14215637485E+02  0.17810703818E+03  0.21893766941E+03  0.12509000000E+03 0.  0.
<mgrwt>
<rscale>  2 0.45661352E+03</rscale>
<asrwt>0</asrwt>
<pdfrwt beam="1">  1       21 0.17175092E+00 0.45661352E+03</pdfrwt>
<pdfrwt beam="2">  1       21 0.65632755E-02 0.45661352E+03</pdfrwt>
<totfact> 0.31365074E+04</totfact>
</mgrwt>
</event>
<event>
 7    0  0.4709932E-002  0.4548380E+03  0.7546771E-02  0.1026289E+00
         21   -1    0    0  502  501  0.00000000000E+00  0.00000000000E+00  0.22076133311E+03  0.22076133311E+03  0.00000000000E+00 0. -1.
         21   -1    0    0  501  502 -0.00000000000E+00 -0.00000000000E+00 -0.23427746472E+03  0.23427746472E+03  0.00000000000E+00 0. -1.
      99926    2    1    2    0    0  0.00000000000E+00  0.71054273576E-14 -0.13516131609E+02  0.45503879783E+03  0.45483801701E+03 0.  0.
      99925    2    3    3    0    0  0.54884881438E+02  0.41491578369E+02  0.81060088816E+02  0.28379023329E+03  0.26312023341E+03 0.  0.
         25    1    3    3    0    0 -0.54884881438E+02 -0.41491578369E+02 -0.94576220424E+02  0.17124856454E+03  0.12509000000E+03 0.  0.
         25    1    4    4    0    0  0.30528523085E+02  0.61936252893E+02  0.44094486613E+02  0.14953234431E+03  0.12509000000E+03 0.  0.
         25    1    4    4    0    0  0.24356358352E+02 -0.20444674524E+02  0.36965602203E+02  0.13425788899E+03  0.12509000000E+03 0.  0.
<mgrwt>
<rscale>  2 0.45483802E+03</rscale>
<asrwt>0</asrwt>
<pdfrwt beam="1">  1       21 0.32464902E-01 0.45483802E+03</pdfrwt>
<pdfrwt beam="2">  1       21 0.34452568E-01 0.45483802E+03</pdfrwt>
<totfact> 0.68631620E+04</totfact>
</mgrwt>
</event>
<event>
 7    0  0.4709932E-002  0.4568437E+03  0.7546771E-02  0.1025701E+00
         21   -1    0    0  502  501  0.00000000000E+00  0.00000000000E+00  0.22252139961E+03  0.22252139961E+03  0.00000000000E+00 0. -1.
         21   -1    0    0  501  502 -0.00000000000E+00 -0.00000000000E+00 -0.23447871718E+03  0.23447871718E+03  0.00000000000E+00 0. -1.
      99926    2    1    2    0    0  0.00000000000E+00  0.00000000000E+00 -0.11957317575E+02  0.45700011679E+03  0.45684365958E+03 0.  0.
      99925    2    3    3    0    0 -0.67882834834E+02 -0.47862443619E+02  0.71875019002E+02  0.28502842862E+03  0.26301386654E+03 0.  0.
         25    1    4    4    0    0 -0.42204170609E+02 -0.87851629379E+01  0.73741272414E+02  0.15147162923E+03  0.12509000000E+03 0.  0.
         25    1    3    3    0    0  0.67882834834E+02  0.47862443619E+02 -0.83832336577E+02  0.17197168816E+03  0.12509000000E+03 0.  0.
         25    1    4    4    0    0 -0.25678664225E+02 -0.39077280681E+02 -0.18662534122E+01  0.13355679939E+03  0.12509000000E+03 0.  0.
<mgrwt>
<rscale>  2 0.45684366E+03</rscale>
<asrwt>0</asrwt>
<pdfrwt beam="1">  1       21 0.32723735E-01 0.45684366E+03</pdfrwt>
<pdfrwt beam="2">  1       21 0.34482164E-01 0.45684366E+03</pdfrwt>
<totfact> 0.67402530E+04</totfact>
</mgrwt>
</event>
<event>
 7    0  0.4709932E-002  0.4544285E+03  0.7546771E-02  0.1026410E+00
         21   -1    0    0  502  501  0.00000000000E+00  0.00000000000E+00  0.44756884176E+03  0.44756884176E+03  0.00000000000E+00 0.  1.
         21   -1    0    0  501  502 -0.00000000000E+00 -0.00000000000E+00 -0.11534833369E+03  0.11534833369E+03  0.00000000000E+00 0.  1.
      99926    2    1    2    0    0  0.00000000000E+00  0.00000000000E+00  0.33222050807E+03  0.56291717544E+03  0.45442852070E+03 0.  0.
      99925    2    3    3    0    0  0.72573725413E+02 -0.17053532389E+02  0.31379089785E+03  0.41613527186E+03  0.26295640004E+03 0.  0.
         25    1    3    3    0    0 -0.72573725413E+02  0.17053532389E+02  0.18429610221E+02  0.14678190359E+03  0.12509000000E+03 0.  0.
         25    1    4    4    0    0  0.23438283389E+02  0.89353313311E+01  0.20423285466E+03  0.24080647894E+03  0.12509000000E+03 0.  0.
         25    1    4    4    0    0  0.49135442024E+02 -0.25988863720E+02  0.10955804319E+03  0.17532879292E+03  0.12509000000E+03 0.  0.
<mgrwt>
<rscale>  2 0.45442852E+03</rscale>
<asrwt>0</asrwt>
<pdfrwt beam="1">  1       21 0.65818947E-01 0.45442852E+03</pdfrwt>
<pdfrwt beam="2">  1       21 0.16962990E-01 0.45442852E+03</pdfrwt>
<totfact> 0.61297514E+04</totfact>
</mgrwt>
</event>
<event>
 7    0  0.4709932E-002  0.4519651E+03  0.7546771E-02  0.1027138E+00
         21   -1    0    0  502  501  0.00000000000E+00  0.00000000000E+00  0.12104934205E+03  0.12104934205E+03  0.00000000000E+00 0.  1.
         21   -1    0    0  501  502 -0.00000000000E+00 -0.00000000000E+00 -0.42187855416E+03  0.42187855416E+03  0.00000000000E+00 0.  1.
      99926    2    1    2    0    0  0.35527136788E-14  0.88817841970E-15 -0.30082921211E+03  0.54292789620E+03  0.45196513761E+03 0.  0.
      99925    2    3    3    0    0 -0.27948622538E+02 -0.50259416638E+01 -0.60754223375E+02  0.27073330789E+03  0.26229575435E+03 0.  0.
         25    1    4    4    0    0 -0.51721755341E+02 -0.81526864273E+01 -0.42204103788E+02  0.14202218400E+03  0.12509000000E+03 0.  0.
         25    1    3    3    0    0  0.27948622538E+02  0.50259416638E+01 -0.24007498874E+03  0.27219458832E+03  0.12509000000E+03 0.  0.
         25    1    4    4    0    0  0.23773132802E+02  0.31267447634E+01 -0.18550119586E+02  0.12871112389E+03  0.12509000000E+03 0.  0.
<mgrwt>
<rscale>  2 0.45196514E+03</rscale>
<asrwt>0</asrwt>
<pdfrwt beam="1">  1       21 0.17801374E-01 0.45196514E+03</pdfrwt>
<pdfrwt beam="2">  1       21 0.62040964E-01 0.45196514E+03</pdfrwt>
<totfact> 0.63856063E+04</totfact>
</mgrwt>
</event>
<event>
 7    0  0.4709932E-002  0.4544081E+03  0.7546771E-02  0.1026416E+00
         21   -1    0    0  502  501  0.00000000000E+00  0.00000000000E+00  0.55113548808E+03  0.55113548808E+03  0.00000000000E+00 0.  1.
         21   -1    0    0  501  502 -0.00000000000E+00 -0.00000000000E+00 -0.93664238854E+02  0.93664238854E+02  0.00000000000E+00 0.  1.
      99926    2    1    2    0    0  0.00000000000E+00 -0.17763568394E-14  0.45747124922E+03  0.64479972693E+03  0.45440812491E+03 0.  0.
      99925    2    3    3    0    0 -0.78443214644E+02  0.10112308985E+02  0.40161504977E+03  0.48661306557E+03  0.26313880493E+03 0.  0.
         25    1    4    4    0    0 -0.43787340259E+02 -0.35234046321E+02  0.19284910203E+03  0.23663696550E+03  0.12509000000E+03 0.  0.
         25    1    3    3    0    0  0.78443214644E+02 -0.10112308985E+02  0.55856199456E+02  0.15818666137E+03  0.12509000000E+03 0.  0.
         25    1    4    4    0    0 -0.34655874385E+02  0.45346355306E+02  0.20876594774E+03  0.24997610006E+03  0.12509000000E+03 0.  0.
<mgrwt>
<rscale>  2 0.45440812E+03</rscale>
<asrwt>0</asrwt>
<pdfrwt beam="1">  1       21 0.81049335E-01 0.45440812E+03</pdfrwt>
<pdfrwt beam="2">  1       21 0.13774153E-01 0.45440812E+03</pdfrwt>
<totfact> 0.56264371E+04</totfact>
</mgrwt>
</event>
<event>
 7    0  0.4709932E-002  0.4553186E+03  0.7546771E-02  0.1026148E+00
         21   -1    0    0  502  501  0.00000000000E+00  0.00000000000E+00  0.11818382071E+04  0.11818382071E+04  0.00000000000E+00 0. -1.
         21   -1    0    0  501  502 -0.00000000000E+00 -0.00000000000E+00 -0.43854364188E+02  0.43854364188E+02  0.00000000000E+00 0. -1.
      99926    2    1    2    0    0  0.00000000000E+00  0.00000000000E+00  0.11379838429E+04  0.12256925713E+04  0.45531862753E+03 0.  0.
      99925    2    3    3    0    0 -0.43467210885E+02 -0.70937687294E+02  0.51462446773E+03  0.58448591768E+03  0.26431778465E+03 0.  0.
         25    1    4    4    0    0 -0.57157780493E+02 -0.40665687119E+02  0.21912893101E+03  0.26188872921E+03  0.12509000000E+03 0.  0.
         25    1    4    4    0    0  0.13690569608E+02 -0.30272000176E+02  0.29549553672E+03  0.32259718848E+03  0.12509000000E+03 0.  0.
         25    1    3    3    0    0  0.43467210885E+02  0.70937687294E+02  0.62335937515E+03  0.64120665358E+03  0.12509000000E+03 0.  0.
<mgrwt>
<rscale>  2 0.45531863E+03</rscale>
<asrwt>0</asrwt>
<pdfrwt beam="1">  1       21 0.17379972E+00 0.45531863E+03</pdfrwt>
<pdfrwt beam="2">  1       21 0.64491720E-02 0.45531863E+03</pdfrwt>
<totfact> 0.31273723E+04</totfact>
</mgrwt>
</event>
<event>
 7    0  0.4709932E-002  0.4764057E+03  0.7546771E-02  0.1020128E+00
         21   -1    0    0  502  501  0.00000000000E+00  0.00000000000E+00  0.27033044114E+03  0.27033044114E+03  0.00000000000E+00 0.  1.
         21   -1    0    0  501  502 -0.00000000000E+00 -0.00000000000E+00 -0.20989348649E+03  0.20989348649E+03  0.00000000000E+00 0.  1.
      99926    2    1    2    0    0 -0.14210854715E-13  0.00000000000E+00  0.60436954654E+02  0.48022392763E+03  0.47640570439E+03 0.  0.
      99925    2    3    3    0    0  0.91171475820E+02 -0.82953133278E+02  0.85690370314E+02  0.30280154058E+03  0.26296857814E+03 0.  0.
         25    1    4    4    0    0  0.18023367997E+02 -0.72442932074E+01  0.30127532223E+02  0.13012493180E+03  0.12509000000E+03 0.  0.
         25    1    4    4    0    0  0.73148107823E+02 -0.75708840071E+02  0.55562838091E+02  0.17267660878E+03  0.12509000000E+03 0.  0.
         25    1    3    3    0    0 -0.91171475820E+02  0.82953133278E+02 -0.25253415660E+02  0.17742238705E+03  0.12509000000E+03 0.  0.
<mgrwt>
<rscale>  2 0.47640570E+03</rscale>
<asrwt>0</asrwt>
<pdfrwt beam="1">  1       21 0.39754477E-01 0.47640570E+03</pdfrwt>
<pdfrwt beam="2">  1       21 0.30866689E-01 0.47640570E+03</pdfrwt>
<totfact> 0.56458711E+04</totfact>
</mgrwt>
</event>
<event>
 7    0  0.4709932E-002  0.4693259E+03  0.7546771E-02  0.1022111E+00
         21   -1    0    0  502  501  0.00000000000E+00  0.00000000000E+00  0.49815991536E+03  0.49815991536E+03  0.00000000000E+00 0. -1.
         21   -1    0    0  501  502 -0.00000000000E+00 -0.00000000000E+00 -0.11054022007E+03  0.11054022007E+03  0.00000000000E+00 0. -1.
      99926    2    1    2    0    0  0.00000000000E+00  0.00000000000E+00  0.38761969529E+03  0.60870013542E+03  0.46932592799E+03 0.  0.
      99925    2    3    3    0    0  0.42353055157E+02 -0.90890197101E+02  0.14173577312E+03  0.31516781950E+03  0.26303405835E+03 0.  0.
         25    1    3    3    0    0 -0.42353055157E+02  0.90890197101E+02  0.24588392217E+03  0.29353231593E+03  0.12509000000E+03 0.  0.
         25    1    4    4    0    0  0.35369232639E+02 -0.84077809411E+01  0.80627552939E+02  0.15319916381E+03  0.12509000000E+03 0.  0.
         25    1    4    4    0    0  0.69838225178E+01 -0.82482416160E+02  0.61108220181E+02  0.16196865569E+03  0.12509000000E+03 0.  0.
<mgrwt>
<rscale>  2 0.46932593E+03</rscale>
<asrwt>0</asrwt>
<pdfrwt beam="1">  1       21 0.73258810E-01 0.46932593E+03</pdfrwt>
<pdfrwt beam="2">  1       21 0.16255915E-01 0.46932593E+03</pdfrwt>
<totfact> 0.52005615E+04</totfact>
</mgrwt>
</event>
<event>
 7    0  0.4709932E-002  0.4539730E+03  0.7546771E-02  0.1026544E+00
         21   -1    0    0  502  501  0.00000000000E+00  0.00000000000E+00  0.34696860693E+03  0.34696860693E+03  0.00000000000E+00 0.  1.
         21   -1    0    0  501  502 -0.00000000000E+00 -0.00000000000E+00 -0.14849430310E+03  0.14849430310E+03  0.00000000000E+00 0.  1.
      99926    2    1    2    0    0  0.00000000000E+00  0.00000000000E+00  0.19847430384E+03  0.49546291003E+03  0.45397295727E+03 0.  0.
      99925    2    3    3    0    0 -0.41920753240E+02  0.89559400485E+02  0.18260823239E+03  0.33522098016E+03  0.26315224345E+03 0.  0.
         25    1    3    3    0    0  0.41920753240E+02 -0.89559400485E+02  0.15866071446E+02  0.16024192988E+03  0.12509000000E+03 0.  0.
         25    1    4    4    0    0  0.80960648726E+01  0.12934373251E+02  0.77131306240E+02  0.14774840365E+03  0.12509000000E+03 0.  0.
         25    1    4    4    0    0 -0.50016818112E+02  0.76625027235E+02  0.10547692615E+03  0.18747257651E+03  0.12509000000E+03 0.  0.
<mgrwt>
<rscale>  2 0.45397296E+03</rscale>
<asrwt>0</asrwt>
<pdfrwt beam="1">  1       21 0.51024795E-01 0.45397296E+03</pdfrwt>
<pdfrwt beam="2">  1       21 0.21837398E-01 0.45397296E+03</pdfrwt>
<totfact> 0.66128100E+04</totfact>
</mgrwt>
</event>
<event>
 7    0  0.4709932E-002  0.4560299E+03  0.7546771E-02  0.1025939E+00
         21   -1    0    0  502  501  0.00000000000E+00  0.00000000000E+00  0.44540774828E+03  0.44540774828E+03  0.00000000000E+00 0. -1.
         21   -1    0    0  501  502 -0.00000000000E+00 -0.00000000000E+00 -0.11672633338E+03  0.11672633338E+03  0.00000000000E+00 0. -1.
      99926    2    1    2    0    0  0.00000000000E+00  0.00000000000E+00  0.32868141490E+03  0.56213408165E+03  0.45602988197E+03 0.  0.
      99925    2    3    3    0    0 -0.92306640562E+02  0.36553319027E+02  0.13718869603E+03  0.31278767501E+03  0.26298047512E+03 0.  0.
         25    1    4    4    0    0 -0.45636289530E+02  0.27743572809E+02  0.11296910588E+03  0.17681036094E+03  0.12509000000E+03 0.  0.
         25    1    3    3    0    0  0.92306640562E+02 -0.36553319027E+02  0.19149271887E+03  0.24934640664E+03  0.12509000000E+03 0.  0.
         25    1    4    4    0    0 -0.46670351032E+02  0.88097462174E+01  0.24219590151E+02  0.13597731407E+03  0.12509000000E+03 0.  0.
<mgrwt>
<rscale>  2 0.45602988E+03</rscale>
<asrwt>0</asrwt>
<pdfrwt beam="1">  1       21 0.65501139E-01 0.45602988E+03</pdfrwt>
<pdfrwt beam="2">  1       21 0.17165637E-01 0.45602988E+03</pdfrwt>
<totfact> 0.60576776E+04</totfact>
</mgrwt>
</event>
<event>
 7    0  0.4709932E-002  0.4524237E+03  0.7546771E-02  0.1027002E+00
         21   -1    0    0  502  501  0.00000000000E+00  0.00000000000E+00  0.55372951045E+03  0.55372951045E+03  0.00000000000E+00 0.  1.
         21   -1    0    0  501  502 -0.00000000000E+00 -0.00000000000E+00 -0.92412998161E+02  0.92412998161E+02  0.00000000000E+00 0.  1.
      99926    2    1    2    0    0  0.00000000000E+00  0.00000000000E+00  0.46131651229E+03  0.64614250861E+03  0.45242371393E+03 0.  0.
      99925    2    3    3    0    0  0.10633816846E+03  0.18085965599E+02  0.32131528828E+03  0.42961823965E+03  0.26399509302E+03 0.  0.
         25    1    4    4    0    0  0.56828443437E+02  0.16468951803E+02  0.22503394574E+03  0.26417509949E+03  0.12509000000E+03 0.  0.
         25    1    3    3    0    0 -0.10633816846E+03 -0.18085965599E+02  0.14000122401E+03  0.21652426896E+03  0.12509000000E+03 0.  0.
         25    1    4    4    0    0  0.49509725024E+02  0.16170137958E+01  0.96281342543E+02  0.16544314016E+03  0.12509000000E+03 0.  0.
<mgrwt>
<rscale>  2 0.45242371E+03</rscale>
<asrwt>0</asrwt>
<pdfrwt beam="1">  1       21 0.81430809E-01 0.45242371E+03</pdfrwt>
<pdfrwt beam="2">  1       21 0.13590147E-01 0.45242371E+03</pdfrwt>
<totfact> 0.57075588E+04</totfact>
</mgrwt>
</event>
<event>
 7    0  0.4709932E-002  0.4544299E+03  0.7546771E-02  0.1026409E+00
         21   -1    0    0  502  501  0.00000000000E+00  0.00000000000E+00  0.66129396733E+02  0.66129396733E+02  0.00000000000E+00 0. -1.
         21   -1    0    0  501  502 -0.00000000000E+00 -0.00000000000E+00 -0.78069097126E+03  0.78069097126E+03  0.00000000000E+00 0. -1.
      99926    2    1    2    0    0  0.00000000000E+00  0.00000000000E+00 -0.71456157453E+03  0.84682036800E+03  0.45442985362E+03 0.  0.
      99925    2    3    3    0    0  0.11205713919E+03 -0.11354136165E+02 -0.45196275368E+03  0.53490472609E+03  0.26299622893E+03 0.  0.
         25    1    4    4    0    0  0.62952562646E+02  0.31135203400E+02 -0.25708613187E+03  0.29440314763E+03  0.12509000000E+03 0.  0.
         25    1    3    3    0    0 -0.11205713919E+03  0.11354136165E+02 -0.26259882085E+03  0.31191564190E+03  0.12509000000E+03 0.  0.
         25    1    4    4    0    0  0.49104576548E+02 -0.42489339565E+02 -0.19487662181E+03  0.24050157846E+03  0.12509000000E+03 0.  0.
<mgrwt>
<rscale>  2 0.45442985E+03</rscale>
<asrwt>0</asrwt>
<pdfrwt beam="1">  1       21 0.97249113E-02 0.45442985E+03</pdfrwt>
<pdfrwt beam="2">  1       21 0.11480750E+00 0.45442985E+03</pdfrwt>
<totfact> 0.45786395E+04</totfact>
</mgrwt>
</event>
<event>
 7    0  0.4709932E-002  0.4571792E+03  0.7546771E-02  0.1025603E+00
         21   -1    0    0  502  501  0.00000000000E+00  0.00000000000E+00  0.15245078807E+03  0.15245078807E+03  0.00000000000E+00 0. -1.
         21   -1    0    0  501  502 -0.00000000000E+00 -0.00000000000E+00 -0.34275451214E+03  0.34275451214E+03  0.00000000000E+00 0. -1.
      99926    2    1    2    0    0  0.00000000000E+00  0.00000000000E+00 -0.19030372408E+03  0.49520530021E+03  0.45717915740E+03 0.  0.
      99925    2    3    3    0    0 -0.46366481671E+02 -0.33315926556E+02 -0.11296805674E+02  0.26948249117E+03  0.26312239290E+03 0.  0.
         25    1    3    3    0    0  0.46366481671E+02  0.33315926556E+02 -0.17900691840E+03  0.22572280904E+03  0.12509000000E+03 0.  0.
         25    1    4    4    0    0 -0.25430071611E+02 -0.54610806493E+02  0.96829890451E+01  0.13917721475E+03  0.12509000000E+03 0.  0.
         25    1    4    4    0    0 -0.20936410060E+02  0.21294879937E+02 -0.20979794720E+02  0.13030527643E+03  0.12509000000E+03 0.  0.
<mgrwt>
<rscale>  2 0.45717916E+03</rscale>
<asrwt>0</asrwt>
<pdfrwt beam="1">  1       21 0.22419234E-01 0.45717916E+03</pdfrwt>
<pdfrwt beam="2">  1       21 0.50405074E-01 0.45717916E+03</pdfrwt>
<totfact> 0.64486015E+04</totfact>
</mgrwt>
</event>
<event>
 7    0  0.4709932E-002  0.4562330E+03  0.7546771E-02  0.1025879E+00
         21   -1    0    0  502  501  0.00000000000E+00  0.00000000000E+00  0.15165833351E+04  0.15165833351E+04  0.00000000000E+00 0. -1.
         21   -1    0    0  501  502 -0.00000000000E+00 -0.00000000000E+00 -0.34312085445E+02  0.34312085445E+02  0.00000000000E+00 0. -1.
      99926    2    1    2    0    0  0.14210854715E-13 -0.14210854715E-13  0.14822712496E+04  0.15508954205E+04  0.45623299739E+03 0.  0.
      99925    2    3    3    0    0  0.72749799344E+02 -0.65469691890E+02  0.11324546364E+04  0.11667105889E+04  0.26302334662E+03 0.  0.
         25    1    4    4    0    0  0.28677633096E+02 -0.64355281811E+02  0.69126278815E+03  0.70601399372E+03  0.12509000000E+03 0.  0.
         25    1    3    3    0    0 -0.72749799344E+02  0.65469691890E+02  0.34981661320E+03  0.38418483160E+03  0.12509000000E+03 0.  0.
         25    1    4    4    0    0  0.44072166248E+02 -0.11144100791E+01  0.44119184827E+03  0.46069659520E+03  0.12509000000E+03 0.  0.
<mgrwt>
<rscale>  2 0.45623300E+03</rscale>
<asrwt>0</asrwt>
<pdfrwt beam="1">  1       21 0.22302692E+00 0.45623300E+03</pdfrwt>
<pdfrwt beam="2">  1       21 0.50458959E-02 0.45623300E+03</pdfrwt>
<totfact> 0.22344172E+04</totfact>
</mgrwt>
</event>
<event>
 7    0  0.4709932E-002  0.4532720E+03  0.7546771E-02  0.1026751E+00
         21   -1    0    0  502  501  0.00000000000E+00  0.00000000000E+00  0.19548071989E+03  0.19548071989E+03  0.00000000000E+00 0. -1.
         21   -1    0    0  501  502 -0.00000000000E+00 -0.00000000000E+00 -0.26275673418E+03  0.26275673418E+03  0.00000000000E+00 0. -1.
      99926    2    1    2    0    0  0.00000000000E+00  0.00000000000E+00 -0.67276014291E+02  0.45823745406E+03  0.45327199584E+03 0.  0.
      99925    2    3    3    0    0  0.10531967763E+03  0.98935819629E+01 -0.78368702230E+02  0.29404039780E+03  0.26292201237E+03 0.  0.
         25    1    4    4    0    0  0.54198719580E+02 -0.34704252114E+02 -0.30884669594E+02  0.14402519653E+03  0.12509000000E+03 0.  0.
         25    1    4    4    0    0  0.51120958054E+02  0.44597834077E+02 -0.47484032636E+02  0.15001520127E+03  0.12509000000E+03 0.  0.
         25    1    3    3    0    0 -0.10531967763E+03 -0.98935819629E+01  0.11092687939E+02  0.16419705627E+03  0.12509000000E+03 0.  0.
<mgrwt>
<rscale>  2 0.45327200E+03</rscale>
<asrwt>0</asrwt>
<pdfrwt beam="1">  1       21 0.28747165E-01 0.45327200E+03</pdfrwt>
<pdfrwt beam="2">  1       21 0.38640696E-01 0.45327200E+03</pdfrwt>
<totfact> 0.69258705E+04</totfact>
</mgrwt>
</event>
<event>
 7    0  0.4709932E-002  0.4544455E+03  0.7546771E-02  0.1026405E+00
         21   -1    0    0  502  501  0.00000000000E+00  0.00000000000E+00  0.74621087399E+03  0.74621087399E+03  0.00000000000E+00 0. -1.
         21   -1    0    0  501  502 -0.00000000000E+00 -0.00000000000E+00 -0.69189809870E+02  0.69189809870E+02  0.00000000000E+00 0. -1.
      99926    2    1    2    0    0  0.14210854715E-13 -0.71054273576E-14  0.67702106412E+03  0.81540068386E+03  0.45444554567E+03 0.  0.
      99925    2    3    3    0    0  0.68308929778E+02 -0.32337628146E+02  0.57606108596E+03  0.63777113290E+03  0.26304716522E+03 0.  0.
         25    1    4    4    0    0  0.24508551211E+02 -0.47581910530E+02  0.34654747194E+03  0.37230010166E+03  0.12509000000E+03 0.  0.
         25    1    4    4    0    0  0.43800378566E+02  0.15244282384E+02  0.22951361402E+03  0.26547103124E+03  0.12509000000E+03 0.  0.
         25    1    3    3    0    0 -0.68308929778E+02  0.32337628146E+02  0.10095997816E+03  0.17762955095E+03  0.12509000000E+03 0.  0.
<mgrwt>
<rscale>  2 0.45444555E+03</rscale>
<asrwt>0</asrwt>
<pdfrwt beam="1">  1       21 0.10973689E+00 0.45444555E+03</pdfrwt>
<pdfrwt beam="2">  1       21 0.10174973E-01 0.45444555E+03</pdfrwt>
<totfact> 0.47234076E+04</totfact>
</mgrwt>
</event>
<event>
 7    0  0.4709932E-002  0.4630066E+03  0.7546771E-02  0.1023913E+00
         21   -1    0    0  502  501  0.00000000000E+00  0.00000000000E+00  0.38769775677E+03  0.38769775677E+03  0.00000000000E+00 0. -1.
         21   -1    0    0  501  502 -0.00000000000E+00 -0.00000000000E+00 -0.13823595083E+03  0.13823595083E+03  0.00000000000E+00 0. -1.
      99926    2    1    2    0    0  0.71054273576E-14  0.00000000000E+00  0.24946180595E+03  0.52593370760E+03  0.46300655736E+03 0.  0.
      99925    2    3    3    0    0  0.53038629382E+02  0.61483733484E+02  0.25711500094E+03  0.37660378701E+03  0.26292383495E+03 0.  0.
         25    1    4    4    0    0  0.51378953250E+02  0.42526541824E+02  0.93691819074E+02  0.16992341998E+03  0.12509000000E+03 0.  0.
         25    1    4    4    0    0  0.16596761315E+01  0.18957191660E+02  0.16342318187E+03  0.20668036702E+03  0.12509000000E+03 0.  0.
         25    1    3    3    0    0 -0.53038629382E+02 -0.61483733484E+02 -0.76531949997E+01  0.14932992059E+03  0.12509000000E+03 0.  0.
<mgrwt>
<rscale>  2 0.46300656E+03</rscale>
<asrwt>0</asrwt>
<pdfrwt beam="1">  1       21 0.57014376E-01 0.46300656E+03</pdfrwt>
<pdfrwt beam="2">  1       21 0.20328816E-01 0.46300656E+03</pdfrwt>
<totfact> 0.59607526E+04</totfact>
</mgrwt>
</event>
<event>
 7    0  0.4709932E-002  0.4502161E+03  0.7546771E-02  0.1027658E+00
         21   -1    0    0  502  501  0.00000000000E+00  0.00000000000E+00  0.42223850189E+03  0.42223850189E+03  0.00000000000E+00 0.  1.
         21   -1    0    0  501  502 -0.00000000000E+00 -0.00000000000E+00 -0.12001187701E+03  0.12001187701E+03  0.00000000000E+00 0.  1.
      99926    2    1    2    0    0  0.00000000000E+00  0.00000000000E+00  0.30222662488E+03  0.54225037890E+03  0.45021610437E+03 0.  0.
      99925    2    3    3    0    0  0.16663726657E+02  0.21451599430E+02  0.31770241654E+03  0.41331295558E+03  0.26297323603E+03 0.  0.
         25    1    3    3    0    0 -0.16663726657E+02 -0.21451599430E+02 -0.15475791667E+02  0.12893742332E+03  0.12509000000E+03 0.  0.
         25    1    4    4    0    0  0.10995403935E+02  0.40145455440E+02  0.20544809200E+03  0.24410854779E+03  0.12509000000E+03 0.  0.
         25    1    4    4    0    0  0.56683227213E+01 -0.18693856010E+02  0.11225432455E+03  0.16920440779E+03  0.12509000000E+03 0.  0.
<mgrwt>
<rscale>  2 0.45021610E+03</rscale>
<asrwt>0</asrwt>
<pdfrwt beam="1">  1       21 0.62093897E-01 0.45021610E+03</pdfrwt>
<pdfrwt beam="2">  1       21 0.17648806E-01 0.45021610E+03</pdfrwt>
<totfact> 0.64800041E+04</totfact>
</mgrwt>
</event>
