<event>
 6    0  0.1422886E-003  0.4568189E+03  0.7546771E-02  0.1025708E+00
         21   -1    0    0  502  501  0.00000000000E+00  0.00000000000E+00  0.29495823079E+03  0.29495823079E+03  0.00000000000E+00 0.  1.
         21   -1    0    0  501  502 -0.00000000000E+00 -0.00000000000E+00 -0.17687545162E+03  0.17687545162E+03  0.00000000000E+00 0.  1.
      99926    2    1    2    0    0 -0.14210854715E-13  0.00000000000E+00  0.11808277916E+03  0.47183368241E+03  0.45681887124E+03 0.  0.
         25    1    3    3    0    0 -0.55350094254E+02 -0.53215366221E+02  0.10788844252E+03  0.18216182988E+03  0.12509000000E+03 0.  0.
         25    1    3    3    0    0  0.64128875912E+02  0.59610512689E+02 -0.34242299861E+02  0.15647993210E+03  0.12509000000E+03 0.  0.
         25    1    3    3    0    0 -0.87787816576E+01 -0.63951464674E+01  0.44436636506E+02  0.13319192044E+03  0.12509000000E+03 0.  0.
<mgrwt>
<rscale>  2 0.45681887E+03</rscale>
<asrwt>0</asrwt>
<pdfrwt beam="1">  1       21 0.43376210E-01 0.45681887E+03</pdfrwt>
<pdfrwt beam="2">  1       21 0.26011096E-01 0.45681887E+03</pdfrwt>
<totfact> 0.66337187E+04</totfact>
</mgrwt>
</event>
<event>
 6    0  0.1422886E-003  0.4534856E+03  0.7546771E-02  0.1026688E+00
         21   -1    0    0  502  501  0.00000000000E+00  0.00000000000E+00  0.73621981451E+03  0.73621981451E+03  0.00000000000E+00 0. -1.
         21   -1    0    0  501  502 -0.00000000000E+00 -0.00000000000E+00 -0.69832793181E+02  0.69832793181E+02  0.00000000000E+00 0. -1.
      99926    2    1    2    0    0  0.35527136788E-14  0.17763568394E-14  0.66638702132E+03  0.80605260769E+03  0.45348555012E+03 0.  0.
         25    1    3    3    0    0 -0.34173367475E+02  0.73254284826E+02  0.30026121247E+03  0.33516908136E+03  0.12509000000E+03 0.  0.
         25    1    3    3    0    0  0.43696161349E+02 -0.59544067819E+02  0.28771820284E+03  0.32231060001E+03  0.12509000000E+03 0.  0.
         25    1    3    3    0    0 -0.95227938748E+01 -0.13710217008E+02  0.78407606014E+02  0.14857292632E+03  0.12509000000E+03 0.  0.
<mgrwt>
<rscale>  2 0.45348555E+03</rscale>
<asrwt>0</asrwt>
<pdfrwt beam="1">  1       21 0.10826762E+00 0.45348555E+03</pdfrwt>
<pdfrwt beam="2">  1       21 0.10269529E-01 0.45348555E+03</pdfrwt>
<totfact> 0.48041861E+04</totfact>
</mgrwt>
</event>
<event>
 6    0  0.1422886E-003  0.4541822E+03  0.7546771E-02  0.1026482E+00
         21   -1    0    0  502  501  0.00000000000E+00  0.00000000000E+00  0.44512350828E+04  0.44512350828E+04  0.00000000000E+00 0. -1.
         21   -1    0    0  501  502 -0.00000000000E+00 -0.00000000000E+00 -0.11585632127E+02  0.11585632127E+02  0.00000000000E+00 0. -1.
      99926    2    1    2    0    0  0.00000000000E+00 -0.26645352591E-14  0.44396494506E+04  0.44628207149E+04  0.45418221974E+03 0.  0.
         25    1    3    3    0    0  0.12687468205E+02 -0.54769034470E+02  0.19916008954E+04  0.19963171726E+04  0.12509000000E+03 0.  0.
         25    1    3    3    0    0  0.63962165312E+02  0.48973221692E+02  0.14676389676E+04  0.14751614089E+04  0.12509000000E+03 0.  0.
         25    1    3    3    0    0 -0.76649633516E+02  0.57958127782E+01  0.98040958762E+03  0.99134213335E+03  0.12509000000E+03 0.  0.
<mgrwt>
<rscale>  2 0.45418222E+03</rscale>
<asrwt>0</asrwt>
<pdfrwt beam="1">  1       21 0.65459221E+00 0.45418222E+03</pdfrwt>
<pdfrwt beam="2">  1       21 0.17037725E-02 0.45418222E+03</pdfrwt>
<totfact> 0.15310966E+02</totfact>
</mgrwt>
</event>
<event>
 6    0  0.1422886E-003  0.4546459E+03  0.7546771E-02  0.1026346E+00
         21   -1    0    0  502  501  0.00000000000E+00  0.00000000000E+00  0.43357310502E+02  0.43357310502E+02  0.00000000000E+00 0.  1.
         21   -1    0    0  501  502 -0.00000000000E+00 -0.00000000000E+00 -0.11918571505E+04  0.11918571505E+04  0.00000000000E+00 0.  1.
      99926    2    1    2    0    0  0.00000000000E+00 -0.71054273576E-14 -0.11484998400E+04  0.12352144610E+04  0.45464588659E+03 0.  0.
         25    1    3    3    0    0  0.11340158879E+02  0.10938279948E+02 -0.32917172984E+03  0.35249082399E+03  0.12509000000E+03 0.  0.
         25    1    3    3    0    0 -0.68847403842E+02  0.40175025541E+02 -0.21768662969E+03  0.26341787058E+03  0.12509000000E+03 0.  0.
         25    1    3    3    0    0  0.57507244963E+02 -0.51113305489E+02 -0.60164148047E+03  0.61930576644E+03  0.12509000000E+03 0.  0.
<mgrwt>
<rscale>  2 0.45464589E+03</rscale>
<asrwt>0</asrwt>
<pdfrwt beam="1">  1       21 0.63760760E-02 0.45464589E+03</pdfrwt>
<pdfrwt beam="2">  1       21 0.17527309E+00 0.45464589E+03</pdfrwt>
<totfact> 0.31141541E+04</totfact>
</mgrwt>
</event>
<event>
 6    0  0.1422886E-003  0.4266521E+03  0.7546771E-02  0.1034923E+00
         21   -1    0    0  502  501  0.00000000000E+00  0.00000000000E+00  0.26565481977E+03  0.26565481977E+03  0.00000000000E+00 0.  1.
         21   -1    0    0  501  502 -0.00000000000E+00 -0.00000000000E+00 -0.17130504127E+03  0.17130504127E+03  0.00000000000E+00 0.  1.
      99926    2    1    2    0    0 -0.71054273576E-14  0.00000000000E+00  0.94349778502E+02  0.43695986104E+03  0.42665212933E+03 0.  0.
         25    1    3    3    0    0 -0.46966835482E+02 -0.23761177625E+02  0.97871823863E+02  0.16732267988E+03  0.12509000000E+03 0.  0.
         25    1    3    3    0    0  0.53290421932E+02 -0.16343429657E+02  0.10658138673E+02  0.13736113272E+03  0.12509000000E+03 0.  0.
         25    1    3    3    0    0 -0.63235864494E+01  0.40104607283E+02 -0.14180184034E+02  0.13227604844E+03  0.12509000000E+03 0.  0.
<mgrwt>
<rscale>  2 0.42665213E+03</rscale>
<asrwt>0</asrwt>
<pdfrwt beam="1">  1       21 0.39066885E-01 0.42665213E+03</pdfrwt>
<pdfrwt beam="2">  1       21 0.25191918E-01 0.42665213E+03</pdfrwt>
<totfact> 0.88195843E+04</totfact>
</mgrwt>
</event>
<event>
 6    0  0.1422886E-003  0.4616228E+03  0.7546771E-02  0.1024312E+00
         21   -1    0    0  502  501  0.00000000000E+00  0.00000000000E+00  0.19441857043E+03  0.19441857043E+03  0.00000000000E+00 0. -1.
         21   -1    0    0  501  502 -0.00000000000E+00 -0.00000000000E+00 -0.27401657911E+03  0.27401657911E+03  0.00000000000E+00 0. -1.
      99926    2    1    2    0    0  0.00000000000E+00 -0.88817841970E-15 -0.79598008680E+02  0.46843514954E+03  0.46162283992E+03 0.  0.
         25    1    3    3    0    0 -0.34905513009E+02 -0.15588256181E+02 -0.78126135527E+02  0.15235678430E+03  0.12509000000E+03 0.  0.
         25    1    3    3    0    0  0.11135474591E+03 -0.23303385606E+01 -0.12628053355E+02  0.16796513253E+03  0.12509000000E+03 0.  0.
         25    1    3    3    0    0 -0.76449232896E+02  0.17918594742E+02  0.11156180202E+02  0.14811323271E+03  0.12509000000E+03 0.  0.
<mgrwt>
<rscale>  2 0.46162284E+03</rscale>
<asrwt>0</asrwt>
<pdfrwt beam="1">  1       21 0.28590966E-01 0.46162284E+03</pdfrwt>
<pdfrwt beam="2">  1       21 0.40296556E-01 0.46162284E+03</pdfrwt>
<totfact> 0.64113416E+04</totfact>
</mgrwt>
</event>
<event>
 6    0  0.1422886E-003  0.4547395E+03  0.7546771E-02  0.1026318E+00
         21   -1    0    0  502  501  0.00000000000E+00  0.00000000000E+00  0.84903555010E+03  0.84903555010E+03  0.00000000000E+00 0.  1.
         21   -1    0    0  501  502 -0.00000000000E+00 -0.00000000000E+00 -0.60889102906E+02  0.60889102906E+02  0.00000000000E+00 0.  1.
      99926    2    1    2    0    0  0.35527136788E-14  0.00000000000E+00  0.78814644719E+03  0.90992465300E+03  0.45473954295E+03 0.  0.
         25    1    3    3    0    0 -0.59205811555E+01 -0.47358018782E+02  0.34965101094E+03  0.37440776271E+03  0.12509000000E+03 0.  0.
         25    1    3    3    0    0  0.79754338863E+02 -0.14854461113E+02  0.20110437411E+03  0.25034353790E+03  0.12509000000E+03 0.  0.
         25    1    3    3    0    0 -0.73833757708E+02  0.62212479895E+02  0.23739106214E+03  0.28517335239E+03  0.12509000000E+03 0.  0.
<mgrwt>
<rscale>  2 0.45473954E+03</rscale>
<asrwt>0</asrwt>
<pdfrwt beam="1">  1       21 0.12485816E+00 0.45473954E+03</pdfrwt>
<pdfrwt beam="2">  1       21 0.89542804E-02 0.45473954E+03</pdfrwt>
<totfact> 0.42894810E+04</totfact>
</mgrwt>
</event>
<event>
 6    0  0.1422886E-003  0.4397003E+03  0.7546771E-02  0.1030839E+00
         21   -1    0    0  502  501  0.00000000000E+00  0.00000000000E+00  0.72954591123E+02  0.72954591123E+02  0.00000000000E+00 0. -1.
         21   -1    0    0  501  502 -0.00000000000E+00 -0.00000000000E+00 -0.66252288046E+03  0.66252288046E+03  0.00000000000E+00 0. -1.
      99926    2    1    2    0    0  0.71054273576E-14  0.00000000000E+00 -0.58956828934E+03  0.73547747158E+03  0.43970028817E+03 0.  0.
         25    1    3    3    0    0 -0.60666802968E+01 -0.88329322290E+02 -0.18867374797E+03  0.24307234532E+03  0.12509000000E+03 0.  0.
         25    1    3    3    0    0 -0.41614468748E+02  0.22648421842E+02 -0.15405810334E+03  0.20402480811E+03  0.12509000000E+03 0.  0.
         25    1    3    3    0    0  0.47681149045E+02  0.65680900448E+02 -0.24683643803E+03  0.28838031815E+03  0.12509000000E+03 0.  0.
<mgrwt>
<rscale>  2 0.43970029E+03</rscale>
<asrwt>0</asrwt>
<pdfrwt beam="1">  1       21 0.10728616E-01 0.43970029E+03</pdfrwt>
<pdfrwt beam="2">  1       21 0.97429836E-01 0.43970029E+03</pdfrwt>
<totfact> 0.57646405E+04</totfact>
</mgrwt>
</event>
<event>
 6    0  0.1422886E-003  0.4400737E+03  0.7546771E-02  0.1030724E+00
         21   -1    0    0  502  501  0.00000000000E+00  0.00000000000E+00  0.40059088008E+02  0.40059088008E+02  0.00000000000E+00 0.  1.
         21   -1    0    0  501  502 -0.00000000000E+00 -0.00000000000E+00 -0.12086199240E+04  0.12086199240E+04  0.00000000000E+00 0.  1.
      99926    2    1    2    0    0  0.00000000000E+00  0.00000000000E+00 -0.11685608360E+04  0.12486790120E+04  0.44007368430E+03 0.  0.
         25    1    3    3    0    0  0.50005528918E+02  0.57347323392E+02 -0.59006408319E+03  0.60795756331E+03  0.12509000000E+03 0.  0.
         25    1    3    3    0    0 -0.65052905669E+02 -0.41328439056E+02 -0.27670568549E+03  0.31329453377E+03  0.12509000000E+03 0.  0.
         25    1    3    3    0    0  0.15047376752E+02 -0.16018884336E+02 -0.30179106730E+03  0.32742691491E+03  0.12509000000E+03 0.  0.
<mgrwt>
<rscale>  2 0.44007368E+03</rscale>
<asrwt>0</asrwt>
<pdfrwt beam="1">  1       21 0.58910430E-02 0.44007368E+03</pdfrwt>
<pdfrwt beam="2">  1       21 0.17773820E+00 0.44007368E+03</pdfrwt>
<totfact> 0.34476307E+04</totfact>
</mgrwt>
</event>
<event>
 6    0  0.1422886E-003  0.4791822E+03  0.7546771E-02  0.1019360E+00
         21   -1    0    0  502  501  0.00000000000E+00  0.00000000000E+00  0.44987054656E+02  0.44987054656E+02  0.00000000000E+00 0.  1.
         21   -1    0    0  501  502 -0.00000000000E+00 -0.00000000000E+00 -0.12760089653E+04  0.12760089653E+04  0.00000000000E+00 0.  1.
      99926    2    1    2    0    0  0.00000000000E+00 -0.71054273576E-14 -0.12310219107E+04  0.13209960200E+04  0.47918215770E+03 0.  0.
         25    1    3    3    0    0  0.18649965526E+02  0.80825248744E+02 -0.77083181947E+03  0.78530869348E+03  0.12509000000E+03 0.  0.
         25    1    3    3    0    0  0.26216315957E+02 -0.28075021806E+02 -0.23376338603E+03  0.26789611945E+03  0.12509000000E+03 0.  0.
         25    1    3    3    0    0 -0.44866281483E+02 -0.52750226938E+02 -0.22642670517E+03  0.26779120704E+03  0.12509000000E+03 0.  0.
<mgrwt>
<rscale>  2 0.47918216E+03</rscale>
<asrwt>0</asrwt>
<pdfrwt beam="1">  1       21 0.66157451E-02 0.47918216E+03</pdfrwt>
<pdfrwt beam="2">  1       21 0.18764833E+00 0.47918216E+03</pdfrwt>
<totfact> 0.23724079E+04</totfact>
</mgrwt>
</event>
<event>
 6    0  0.1422886E-003  0.4525936E+03  0.7546771E-02  0.1026951E+00
         21   -1    0    0  502  501  0.00000000000E+00  0.00000000000E+00  0.47293045817E+02  0.47293045817E+02  0.00000000000E+00 0. -1.
         21   -1    0    0  501  502 -0.00000000000E+00 -0.00000000000E+00 -0.10828281851E+04  0.10828281851E+04  0.00000000000E+00 0. -1.
      99926    2    1    2    0    0  0.00000000000E+00  0.00000000000E+00 -0.10355351393E+04  0.11301212309E+04  0.45259360565E+03 0.  0.
         25    1    3    3    0    0 -0.34732368310E+02 -0.39986586273E+02 -0.27096176274E+03  0.30310567375E+03  0.12509000000E+03 0.  0.
         25    1    3    3    0    0 -0.65783836604E+02  0.15414058875E+02 -0.25188029537E+03  0.28923398428E+03  0.12509000000E+03 0.  0.
         25    1    3    3    0    0  0.10051620491E+03  0.24572527398E+02 -0.51269308117E+03  0.53778157289E+03  0.12509000000E+03 0.  0.
<mgrwt>
<rscale>  2 0.45259361E+03</rscale>
<asrwt>0</asrwt>
<pdfrwt beam="1">  1       21 0.69548604E-02 0.45259361E+03</pdfrwt>
<pdfrwt beam="2">  1       21 0.15923942E+00 0.45259361E+03</pdfrwt>
<totfact> 0.35107003E+04</totfact>
</mgrwt>
</event>
