<event>
 6    0  0.1539497E-004  0.5312441E+03  0.7546771E-02  0.1005931E+00
         21   -1    0    0  502  501  0.00000000000E+00  0.00000000000E+00  0.83131190752E+03  0.83131190752E+03  0.00000000000E+00 0. -1.
         21   -1    0    0  501  502 -0.00000000000E+00 -0.00000000000E+00 -0.84871973683E+02  0.84871973683E+02  0.00000000000E+00 0. -1.
      99925    2    1    2    0    0  0.73522352659E+02 -0.14028786922E+03  0.57284905816E+03  0.64997433440E+03  0.26310524386E+03 0.  0.
         25    1    1    2    0    0 -0.73522352659E+02  0.14028786922E+03  0.17359087568E+03  0.26620954681E+03  0.12509000000E+03 0.  0.
         25    1    3    3    0    0  0.52486179589E+02 -0.10869772657E+03  0.36765894828E+03  0.40668243773E+03  0.12509000000E+03 0.  0.
         25    1    3    3    0    0  0.21036173070E+02 -0.31590142651E+02  0.20519010988E+03  0.24329189666E+03  0.12509000000E+03 0.  0.
<mgrwt>
<rscale>  2 0.53124413E+03</rscale>
<asrwt>0</asrwt>
<pdfrwt beam="1">  1       21 0.12225175E+00 0.53124413E+03</pdfrwt>
<pdfrwt beam="2">  1       21 0.12481173E-01 0.53124413E+03</pdfrwt>
<totfact> 0.24391128E+04</totfact>
</mgrwt>
</event>
<event>
 6    0  0.1539497E-004  0.4235136E+03  0.7546771E-02  0.1035929E+00
         21   -1    0    0  502  501  0.00000000000E+00  0.00000000000E+00  0.13296846206E+03  0.13296846206E+03  0.00000000000E+00 0.  1.
         21   -1    0    0  501  502 -0.00000000000E+00 -0.00000000000E+00 -0.33722996786E+03  0.33722996786E+03  0.00000000000E+00 0.  1.
      99925    2    1    2    0    0 -0.64154155606E+02 -0.33768761670E+02 -0.94489089173E+02  0.28866723013E+03  0.26295341190E+03 0.  0.
         25    1    1    2    0    0  0.64154155606E+02  0.33768761670E+02 -0.10977241663E+03  0.18153119979E+03  0.12509000000E+03 0.  0.
         25    1    3    3    0    0 -0.11487192167E+02  0.18524133343E+02 -0.51228953190E+02  0.13691973139E+03  0.12509000000E+03 0.  0.
         25    1    3    3    0    0 -0.52666963438E+02 -0.52292895013E+02 -0.43260135983E+02  0.15174749873E+03  0.12509000000E+03 0.  0.
<mgrwt>
<rscale>  2 0.42351364E+03</rscale>
<asrwt>0</asrwt>
<pdfrwt beam="1">  1       21 0.19554186E-01 0.42351364E+03</pdfrwt>
<pdfrwt beam="2">  1       21 0.49592642E-01 0.42351364E+03</pdfrwt>
<totfact> 0.87278770E+04</totfact>
</mgrwt>
</event>
<event>
 6    0  0.1539497E-004  0.4287816E+03  0.7546771E-02  0.1034246E+00
         21   -1    0    0  502  501  0.00000000000E+00  0.00000000000E+00  0.23093454766E+03  0.23093454766E+03  0.00000000000E+00 0.  1.
         21   -1    0    0  501  502 -0.00000000000E+00 -0.00000000000E+00 -0.19903220754E+03  0.19903220754E+03  0.00000000000E+00 0.  1.
      99925    2    1    2    0    0  0.17221868275E+02  0.82118311620E+02  0.40525954279E+02  0.27909633175E+03  0.26308249576E+03 0.  0.
         25    1    1    2    0    0 -0.17221868275E+02 -0.82118311620E+02 -0.86236141529E+01  0.15087042345E+03  0.12509000000E+03 0.  0.
         25    1    3    3    0    0  0.31505078025E+02  0.35735197656E+02  0.53809339836E+02  0.14426547559E+03  0.12509000000E+03 0.  0.
         25    1    3    3    0    0 -0.14283209750E+02  0.46383113963E+02 -0.13283385557E+02  0.13483085616E+03  0.12509000000E+03 0.  0.
<mgrwt>
<rscale>  2 0.42878159E+03</rscale>
<asrwt>0</asrwt>
<pdfrwt beam="1">  1       21 0.33960963E-01 0.42878159E+03</pdfrwt>
<pdfrwt beam="2">  1       21 0.29269442E-01 0.42878159E+03</pdfrwt>
<totfact> 0.87302775E+04</totfact>
</mgrwt>
</event>
<event>
 6    0  0.1539497E-004  0.4324572E+03  0.7546771E-02  0.1033087E+00
         21   -1    0    0  502  501  0.00000000000E+00  0.00000000000E+00  0.41732249779E+03  0.41732249779E+03  0.00000000000E+00 0.  1.
         21   -1    0    0  501  502 -0.00000000000E+00 -0.00000000000E+00 -0.11203519303E+03  0.11203519303E+03  0.00000000000E+00 0.  1.
      99925    2    1    2    0    0  0.82815682455E+02 -0.55485870277E+01  0.24047814889E+03  0.36584329126E+03  0.26291129604E+03 0.  0.
         25    1    1    2    0    0 -0.82815682455E+02  0.55485870277E+01  0.64809155875E+02  0.16351439956E+03  0.12509000000E+03 0.  0.
         25    1    3    3    0    0  0.20985647056E+02  0.27711839227E+02  0.13853668585E+03  0.18986380604E+03  0.12509000000E+03 0.  0.
         25    1    3    3    0    0  0.61830035399E+02 -0.33260426255E+02  0.10194146304E+03  0.17597948522E+03  0.12509000000E+03 0.  0.
<mgrwt>
<rscale>  2 0.43245720E+03</rscale>
<asrwt>0</asrwt>
<pdfrwt beam="1">  1       21 0.61370955E-01 0.43245720E+03</pdfrwt>
<pdfrwt beam="2">  1       21 0.16475764E-01 0.43245720E+03</pdfrwt>
<totfact> 0.75918923E+04</totfact>
</mgrwt>
</event>
<event>
 6    0  0.1539497E-004  0.4999953E+03  0.7546771E-02  0.1013780E+00
         21   -1    0    0  502  501  0.00000000000E+00  0.00000000000E+00  0.49530549770E+03  0.49530549770E+03  0.00000000000E+00 0. -1.
         21   -1    0    0  501  502 -0.00000000000E+00 -0.00000000000E+00 -0.12618238696E+03  0.12618238696E+03  0.00000000000E+00 0. -1.
      99925    2    1    2    0    0 -0.12762245431E+03 -0.47016161538E+02  0.14100179117E+03  0.32791531300E+03  0.26296185484E+03 0.  0.
         25    1    3    3    0    0 -0.74085152789E+02 -0.61986178196E+02  0.89735067463E+02  0.18174373877E+03  0.12509000000E+03 0.  0.
         25    1    3    3    0    0 -0.53537301517E+02  0.14970016657E+02  0.51266723709E+02  0.14617157423E+03  0.12509000000E+03 0.  0.
         25    1    1    2    0    0  0.12762245431E+03  0.47016161538E+02  0.22812131956E+03  0.29357257165E+03  0.12509000000E+03 0.  0.
<mgrwt>
<rscale>  2 0.49999532E+03</rscale>
<asrwt>0</asrwt>
<pdfrwt beam="1">  1       21 0.72839043E-01 0.49999532E+03</pdfrwt>
<pdfrwt beam="2">  1       21 0.18556234E-01 0.49999532E+03</pdfrwt>
<totfact> 0.40817043E+04</totfact>
</mgrwt>
</event>
<event>
 6    0  0.1539497E-004  0.4364556E+03  0.7546771E-02  0.1031840E+00
         21   -1    0    0  502  501  0.00000000000E+00  0.00000000000E+00  0.31273005651E+02  0.31273005651E+02  0.00000000000E+00 0.  1.
         21   -1    0    0  501  502 -0.00000000000E+00 -0.00000000000E+00 -0.15228270697E+04  0.15228270697E+04  0.00000000000E+00 0.  1.
      99925    2    1    2    0    0  0.57470880733E+02 -0.68417217832E+02 -0.10693773545E+04  0.11048067413E+04  0.26276642005E+03 0.  0.
         25    1    3    3    0    0  0.17012502855E+02 -0.45034365808E+02 -0.38884648482E+03  0.41129869464E+03  0.12509000000E+03 0.  0.
         25    1    3    3    0    0  0.40458377878E+02 -0.23382852024E+02 -0.68053086971E+03  0.69350804670E+03  0.12509000000E+03 0.  0.
         25    1    1    2    0    0 -0.57470880733E+02  0.68417217832E+02 -0.42217670956E+03  0.44929333406E+03  0.12509000000E+03 0.  0.
<mgrwt>
<rscale>  2 0.43645563E+03</rscale>
<asrwt>0</asrwt>
<pdfrwt beam="1">  1       21 0.45989691E-02 0.43645563E+03</pdfrwt>
<pdfrwt beam="2">  1       21 0.22394527E+00 0.43645563E+03</pdfrwt>
<totfact> 0.26036763E+04</totfact>
</mgrwt>
</event>
<event>
 6    0  0.1539497E-004  0.4392621E+03  0.7546771E-02  0.1030973E+00
         21   -1    0    0  502  501  0.00000000000E+00  0.00000000000E+00  0.28062764810E+03  0.28062764810E+03  0.00000000000E+00 0.  1.
         21   -1    0    0  501  502 -0.00000000000E+00 -0.00000000000E+00 -0.17189249864E+03  0.17189249864E+03  0.00000000000E+00 0.  1.
      99925    2    1    2    0    0 -0.22946887940E+02 -0.92439580382E+02  0.91277476517E+02  0.29433065868E+03  0.26311085731E+03 0.  0.
         25    1    3    3    0    0 -0.26435183814E+02 -0.70973475182E+02  0.80457422395E+02  0.16690403842E+03  0.12509000000E+03 0.  0.
         25    1    3    3    0    0  0.34882958741E+01 -0.21466105200E+02  0.10820054122E+02  0.12742662026E+03  0.12509000000E+03 0.  0.
         25    1    1    2    0    0  0.22946887940E+02  0.92439580382E+02  0.17457672950E+02  0.15818948806E+03  0.12509000000E+03 0.  0.
<mgrwt>
<rscale>  2 0.43926205E+03</rscale>
<asrwt>0</asrwt>
<pdfrwt beam="1">  1       21 0.41268772E-01 0.43926205E+03</pdfrwt>
<pdfrwt beam="2">  1       21 0.25278309E-01 0.43926205E+03</pdfrwt>
<totfact> 0.78056516E+04</totfact>
</mgrwt>
</event>
<event>
 6    0  0.1539497E-004  0.4270559E+03  0.7546771E-02  0.1034794E+00
         21   -1    0    0  502  501  0.00000000000E+00  0.00000000000E+00  0.40344617001E+02  0.40344617001E+02  0.00000000000E+00 0.  1.
         21   -1    0    0  501  502 -0.00000000000E+00 -0.00000000000E+00 -0.11301179970E+04  0.11301179970E+04  0.00000000000E+00 0.  1.
      99925    2    1    2    0    0 -0.10464410405E+02  0.61865014555E+02 -0.55052367078E+03  0.61334993159E+03  0.26303049743E+03 0.  0.
         25    1    1    2    0    0  0.10464410405E+02 -0.61865014555E+02 -0.53924970921E+03  0.55711268240E+03  0.12509000000E+03 0.  0.
         25    1    3    3    0    0 -0.51348011655E+01  0.27280594901E+02 -0.18180634603E+03  0.22242223944E+03  0.12509000000E+03 0.  0.
         25    1    3    3    0    0 -0.53296092394E+01  0.34584419655E+02 -0.36871732475E+03  0.39092769215E+03  0.12509000000E+03 0.  0.
<mgrwt>
<rscale>  2 0.42705586E+03</rscale>
<asrwt>0</asrwt>
<pdfrwt beam="1">  1       21 0.59330323E-02 0.42705586E+03</pdfrwt>
<pdfrwt beam="2">  1       21 0.16619381E+00 0.42705586E+03</pdfrwt>
<totfact> 0.41414800E+04</totfact>
</mgrwt>
</event>
<event>
 6    0  0.1539497E-004  0.4650971E+03  0.7546771E-02  0.1023313E+00
         21   -1    0    0  502  501  0.00000000000E+00  0.00000000000E+00  0.22765613067E+03  0.22765613067E+03  0.00000000000E+00 0.  1.
         21   -1    0    0  501  502 -0.00000000000E+00 -0.00000000000E+00 -0.23754611356E+03  0.23754611356E+03  0.00000000000E+00 0.  1.
      99925    2    1    2    0    0  0.82338749901E+02  0.77546119635E+02  0.40160666724E+02  0.28928849823E+03  0.26321452401E+03 0.  0.
         25    1    3    3    0    0  0.44763777574E+02 -0.25440603304E+01  0.26212137602E+02  0.13544316994E+03  0.12509000000E+03 0.  0.
         25    1    3    3    0    0  0.37574972327E+02  0.80090179965E+02  0.13948529122E+02  0.15384532829E+03  0.12509000000E+03 0.  0.
         25    1    1    2    0    0 -0.82338749901E+02 -0.77546119635E+02 -0.50050649614E+02  0.17591374600E+03  0.12509000000E+03 0.  0.
<mgrwt>
<rscale>  2 0.46509710E+03</rscale>
<asrwt>0</asrwt>
<pdfrwt beam="1">  1       21 0.33478843E-01 0.46509710E+03</pdfrwt>
<pdfrwt beam="2">  1       21 0.34933252E-01 0.46509710E+03</pdfrwt>
<totfact> 0.62606809E+04</totfact>
</mgrwt>
</event>
<event>
 6    0  0.1539497E-004  0.4554999E+03  0.7546771E-02  0.1026095E+00
         21   -1    0    0  502  501  0.00000000000E+00  0.00000000000E+00  0.20542606552E+03  0.20542606552E+03  0.00000000000E+00 0.  1.
         21   -1    0    0  501  502 -0.00000000000E+00 -0.00000000000E+00 -0.25249980126E+03  0.25249980126E+03  0.00000000000E+00 0.  1.
      99925    2    1    2    0    0 -0.94170392922E+01 -0.11204322287E+03 -0.46128265328E+02  0.28972727453E+03  0.26300515646E+03 0.  0.
         25    1    3    3    0    0  0.60321343259E+01 -0.88302868921E+02  0.55986805452E+00  0.15323708708E+03  0.12509000000E+03 0.  0.
         25    1    3    3    0    0 -0.15449173618E+02 -0.23740353946E+02 -0.46688133382E+02  0.13649018745E+03  0.12509000000E+03 0.  0.
         25    1    1    2    0    0  0.94170392922E+01  0.11204322287E+03 -0.94547041505E+00  0.16819859225E+03  0.12509000000E+03 0.  0.
<mgrwt>
<rscale>  2 0.45549990E+03</rscale>
<asrwt>0</asrwt>
<pdfrwt beam="1">  1       21 0.30209716E-01 0.45549990E+03</pdfrwt>
<pdfrwt beam="2">  1       21 0.37132323E-01 0.45549990E+03</pdfrwt>
<totfact> 0.68060090E+04</totfact>
</mgrwt>
</event>
<event>
 6    0  0.1539497E-004  0.4001589E+03  0.7546771E-02  0.1043725E+00
         21   -1    0    0  502  501  0.00000000000E+00  0.00000000000E+00  0.46538276877E+03  0.46538276877E+03  0.00000000000E+00 0. -1.
         21   -1    0    0  501  502 -0.00000000000E+00 -0.00000000000E+00 -0.86019068074E+02  0.86019068074E+02  0.00000000000E+00 0. -1.
      99925    2    1    2    0    0 -0.22443125089E+02 -0.33091161093E+02  0.22053729136E+03  0.34531434278E+03  0.26269103457E+03 0.  0.
         25    1    3    3    0    0 -0.24348315192E+02 -0.41669295850E+02  0.15096714792E+03  0.20191027344E+03  0.12509000000E+03 0.  0.
         25    1    3    3    0    0  0.19051901033E+01  0.85781347570E+01  0.69570143439E+02  0.14340406934E+03  0.12509000000E+03 0.  0.
         25    1    1    2    0    0  0.22443125089E+02  0.33091161093E+02  0.15882640934E+03  0.20608749406E+03  0.12509000000E+03 0.  0.
<mgrwt>
<rscale>  2 0.40015893E+03</rscale>
<asrwt>0</asrwt>
<pdfrwt beam="1">  1       21 0.68438641E-01 0.40015893E+03</pdfrwt>
<pdfrwt beam="2">  1       21 0.12649863E-01 0.40015893E+03</pdfrwt>
<totfact> 0.97779202E+04</totfact>
</mgrwt>
</event>
<event>
 6    0  0.1539497E-004  0.4078218E+03  0.7546771E-02  0.1041104E+00
         21   -1    0    0  502  501  0.00000000000E+00  0.00000000000E+00  0.33580422820E+03  0.33580422820E+03  0.00000000000E+00 0.  1.
         21   -1    0    0  501  502 -0.00000000000E+00 -0.00000000000E+00 -0.12382110727E+03  0.12382110727E+03  0.00000000000E+00 0.  1.
      99925    2    1    2    0    0 -0.50389405200E+01  0.49725443325E+01  0.20605024800E+03  0.33419478018E+03  0.26301963667E+03 0.  0.
         25    1    3    3    0    0  0.30633835059E+02  0.21578822727E+02  0.85593893742E+02  0.15613423771E+03  0.12509000000E+03 0.  0.
         25    1    1    2    0    0  0.50389405200E+01 -0.49725443325E+01  0.59328729298E+01  0.12543055529E+03  0.12509000000E+03 0.  0.
         25    1    3    3    0    0 -0.35672775579E+02 -0.16606278395E+02  0.12045635426E+03  0.17806054246E+03  0.12509000000E+03 0.  0.
<mgrwt>
<rscale>  2 0.40782178E+03</rscale>
<asrwt>0</asrwt>
<pdfrwt beam="1">  1       21 0.49382975E-01 0.40782178E+03</pdfrwt>
<pdfrwt beam="2">  1       21 0.18208986E-01 0.40782178E+03</pdfrwt>
<totfact> 0.10108464E+05</totfact>
</mgrwt>
</event>
<event>
 6    0  0.1539497E-004  0.4214043E+03  0.7546771E-02  0.1036610E+00
         21   -1    0    0  502  501  0.00000000000E+00  0.00000000000E+00  0.17948481828E+04  0.17948481828E+04  0.00000000000E+00 0. -1.
         21   -1    0    0  501  502 -0.00000000000E+00 -0.00000000000E+00 -0.24734903265E+02  0.24734903265E+02  0.00000000000E+00 0. -1.
      99925    2    1    2    0    0 -0.41883331798E+01  0.52044273052E+02  0.14000919228E+04  0.14255152479E+04  0.26288815375E+03 0.  0.
         25    1    1    2    0    0  0.41883331798E+01 -0.52044273052E+02  0.37002135678E+03  0.39406783815E+03  0.12509000000E+03 0.  0.
         25    1    3    3    0    0 -0.16728586341E+02  0.63989103928E+02  0.70959200452E+03  0.72356255570E+03  0.12509000000E+03 0.  0.
         25    1    3    3    0    0  0.12540253161E+02 -0.11944830877E+02  0.69049991826E+03  0.70195269224E+03  0.12509000000E+03 0.  0.
<mgrwt>
<rscale>  2 0.42140430E+03</rscale>
<asrwt>0</asrwt>
<pdfrwt beam="1">  1       21 0.26394817E+00 0.42140430E+03</pdfrwt>
<pdfrwt beam="2">  1       21 0.36374870E-02 0.42140430E+03</pdfrwt>
<totfact> 0.22114656E+04</totfact>
</mgrwt>
</event>
<event>
 6    0  0.1539497E-004  0.4001290E+03  0.7546771E-02  0.1043735E+00
         21   -1    0    0  502  501  0.00000000000E+00  0.00000000000E+00  0.41737071747E+03  0.41737071747E+03  0.00000000000E+00 0. -1.
         21   -1    0    0  501  502 -0.00000000000E+00 -0.00000000000E+00 -0.95899863742E+02  0.95899863742E+02  0.00000000000E+00 0. -1.
      99925    2    1    2    0    0  0.37227352325E+01  0.19786668444E+02  0.16193976039E+03  0.30954761038E+03  0.26303966638E+03 0.  0.
         25    1    3    3    0    0 -0.36205272285E+02  0.13999977837E+02  0.64909398737E+02  0.14617646618E+03  0.12509000000E+03 0.  0.
         25    1    1    2    0    0 -0.37227352325E+01 -0.19786668444E+02  0.15953109333E+03  0.20372297083E+03  0.12509000000E+03 0.  0.
         25    1    3    3    0    0  0.39928007518E+02  0.57866906071E+01  0.97030361656E+02  0.16337114419E+03  0.12509000000E+03 0.  0.
<mgrwt>
<rscale>  2 0.40012895E+03</rscale>
<asrwt>0</asrwt>
<pdfrwt beam="1">  1       21 0.61378046E-01 0.40012895E+03</pdfrwt>
<pdfrwt beam="2">  1       21 0.14102921E-01 0.40012895E+03</pdfrwt>
<totfact> 0.10195706E+05</totfact>
</mgrwt>
</event>
<event>
 6    0  0.1539497E-004  0.3937332E+03  0.7546771E-02  0.1045971E+00
         21   -1    0    0  502  501  0.00000000000E+00  0.00000000000E+00  0.74600405752E+02  0.74600405752E+02  0.00000000000E+00 0. -1.
         21   -1    0    0  501  502 -0.00000000000E+00 -0.00000000000E+00 -0.51952080161E+03  0.51952080161E+03  0.00000000000E+00 0. -1.
      99925    2    1    2    0    0 -0.19427366249E+02 -0.21367866301E+02 -0.28221403213E+03  0.38686562320E+03  0.26303277783E+03 0.  0.
         25    1    3    3    0    0 -0.10007929687E+02 -0.87648030332E+01 -0.81662557728E+02  0.14997753786E+03  0.12509000000E+03 0.  0.
         25    1    1    2    0    0  0.19427366249E+02  0.21367866301E+02 -0.16270636373E+03  0.20725558416E+03  0.12509000000E+03 0.  0.
         25    1    3    3    0    0 -0.94194365619E+01 -0.12603063267E+02 -0.20055147441E+03  0.23688808534E+03  0.12509000000E+03 0.  0.
<mgrwt>
<rscale>  2 0.39373322E+03</rscale>
<asrwt>0</asrwt>
<pdfrwt beam="1">  1       21 0.10970648E-01 0.39373322E+03</pdfrwt>
<pdfrwt beam="2">  1       21 0.76400119E-01 0.39373322E+03</pdfrwt>
<totfact> 0.98892890E+04</totfact>
</mgrwt>
</event>
<event>
 6    0  0.1539497E-004  0.4503447E+03  0.7546771E-02  0.1027619E+00
         21   -1    0    0  502  501  0.00000000000E+00  0.00000000000E+00  0.40818540230E+03  0.40818540230E+03  0.00000000000E+00 0. -1.
         21   -1    0    0  501  502 -0.00000000000E+00 -0.00000000000E+00 -0.12421459484E+03  0.12421459484E+03  0.00000000000E+00 0. -1.
      99925    2    1    2    0    0 -0.84932115864E+02  0.60880375130E+02  0.21519767851E+03  0.35549003206E+03  0.26295101764E+03 0.  0.
         25    1    3    3    0    0 -0.56414570208E+02  0.81083924496E+01  0.68498996663E+02  0.15358375697E+03  0.12509000000E+03 0.  0.
         25    1    3    3    0    0 -0.28517545656E+02  0.52771982680E+02  0.14669868185E+03  0.20190627510E+03  0.12509000000E+03 0.  0.
         25    1    1    2    0    0  0.84932115864E+02 -0.60880375130E+02  0.68773128947E+02  0.17690996508E+03  0.12509000000E+03 0.  0.
<mgrwt>
<rscale>  2 0.45034469E+03</rscale>
<asrwt>0</asrwt>
<pdfrwt beam="1">  1       21 0.60027265E-01 0.45034469E+03</pdfrwt>
<pdfrwt beam="2">  1       21 0.18266852E-01 0.45034469E+03</pdfrwt>
<totfact> 0.65422329E+04</totfact>
</mgrwt>
</event>
<event>
 6    0  0.1539497E-004  0.4065104E+03  0.7546771E-02  0.1041548E+00
         21   -1    0    0  502  501  0.00000000000E+00  0.00000000000E+00  0.43022188345E+02  0.43022188345E+02  0.00000000000E+00 0.  1.
         21   -1    0    0  501  502 -0.00000000000E+00 -0.00000000000E+00 -0.96026438126E+03  0.96026438126E+03  0.00000000000E+00 0.  1.
      99925    2    1    2    0    0  0.13523683443E+02  0.42324120913E+02 -0.51968205454E+03  0.58414960756E+03  0.26303441786E+03 0.  0.
         25    1    1    2    0    0 -0.13523683443E+02 -0.42324120913E+02 -0.39756013838E+03  0.41913696205E+03  0.12509000000E+03 0.  0.
         25    1    3    3    0    0 -0.12393685950E+01  0.21012065166E+02 -0.17181319027E+03  0.21356573547E+03  0.12509000000E+03 0.  0.
         25    1    3    3    0    0  0.14763052038E+02  0.21312055747E+02 -0.34786886427E+03  0.37058387209E+03  0.12509000000E+03 0.  0.
<mgrwt>
<rscale>  2 0.40651039E+03</rscale>
<asrwt>0</asrwt>
<pdfrwt beam="1">  1       21 0.63267933E-02 0.40651039E+03</pdfrwt>
<pdfrwt beam="2">  1       21 0.14121533E+00 0.40651039E+03</pdfrwt>
<totfact> 0.58123852E+04</totfact>
</mgrwt>
</event>
<event>
 6    0  0.1539497E-004  0.4308050E+03  0.7546771E-02  0.1033606E+00
         21   -1    0    0  502  501  0.00000000000E+00  0.00000000000E+00  0.29930907047E+03  0.29930907047E+03  0.00000000000E+00 0. -1.
         21   -1    0    0  501  502 -0.00000000000E+00 -0.00000000000E+00 -0.15501777968E+03  0.15501777968E+03  0.00000000000E+00 0. -1.
      99925    2    1    2    0    0  0.81634012703E+02  0.28699243055E+02  0.11371495461E+03  0.29918117984E+03  0.26285077304E+03 0.  0.
         25    1    3    3    0    0  0.22042367493E+02  0.46962523373E+02  0.71775482047E+02  0.15326634493E+03  0.12509000000E+03 0.  0.
         25    1    1    2    0    0 -0.81634012703E+02 -0.28699243055E+02  0.30576336187E+02  0.15514567031E+03  0.12509000000E+03 0.  0.
         25    1    3    3    0    0  0.59591645210E+02 -0.18263280318E+02  0.41939472561E+02  0.14591483491E+03  0.12509000000E+03 0.  0.
<mgrwt>
<rscale>  2 0.43080496E+03</rscale>
<asrwt>0</asrwt>
<pdfrwt beam="1">  1       21 0.44016040E-01 0.43080496E+03</pdfrwt>
<pdfrwt beam="2">  1       21 0.22796732E-01 0.43080496E+03</pdfrwt>
<totfact> 0.83540772E+04</totfact>
</mgrwt>
</event>
<event>
 6    0  0.1539497E-004  0.4541878E+03  0.7546771E-02  0.1026480E+00
         21   -1    0    0  502  501  0.00000000000E+00  0.00000000000E+00  0.10162271980E+04  0.10162271980E+04  0.00000000000E+00 0. -1.
         21   -1    0    0  501  502 -0.00000000000E+00 -0.00000000000E+00 -0.50748149192E+02  0.50748149192E+02  0.00000000000E+00 0. -1.
      99925    2    1    2    0    0  0.18413612259E+02  0.10916557861E+03  0.65211457269E+03  0.71186833844E+03  0.26314811550E+03 0.  0.
         25    1    1    2    0    0 -0.18413612259E+02 -0.10916557861E+03  0.31336447610E+03  0.35510700873E+03  0.12509000000E+03 0.  0.
         25    1    3    3    0    0  0.10137681714E+02  0.37145583734E+02  0.21756640544E+03  0.25390001153E+03  0.12509000000E+03 0.  0.
         25    1    3    3    0    0  0.82759305452E+01  0.72019994878E+02  0.43454816726E+03  0.45796832691E+03  0.12509000000E+03 0.  0.
<mgrwt>
<rscale>  2 0.45418784E+03</rscale>
<asrwt>0</asrwt>
<pdfrwt beam="1">  1       21 0.14944516E+00 0.45418784E+03</pdfrwt>
<pdfrwt beam="2">  1       21 0.74629638E-02 0.45418784E+03</pdfrwt>
<totfact> 0.36893898E+04</totfact>
</mgrwt>
</event>
<event>
 6    0  0.1539497E-004  0.4163015E+03  0.7546771E-02  0.1038277E+00
         21   -1    0    0  502  501  0.00000000000E+00  0.00000000000E+00  0.35826858227E+03  0.35826858227E+03  0.00000000000E+00 0.  1.
         21   -1    0    0  501  502 -0.00000000000E+00 -0.00000000000E+00 -0.12093368887E+03  0.12093368887E+03  0.00000000000E+00 0.  1.
      99925    2    1    2    0    0  0.51303515451E+02 -0.24765233959E+02  0.10802958266E+03  0.29048889325E+03  0.26356790181E+03 0.  0.
         25    1    3    3    0    0 -0.56120918814E+01  0.11179335080E+02  0.33639651343E+02  0.13013687929E+03  0.12509000000E+03 0.  0.
         25    1    3    3    0    0  0.56915607332E+02 -0.35944569039E+02  0.74389931315E+02  0.16035201396E+03  0.12509000000E+03 0.  0.
         25    1    1    2    0    0 -0.51303515451E+02  0.24765233959E+02  0.12930531074E+03  0.18871337789E+03  0.12509000000E+03 0.  0.
<mgrwt>
<rscale>  2 0.41630153E+03</rscale>
<asrwt>0</asrwt>
<pdfrwt beam="1">  1       21 0.52686556E-01 0.41630153E+03</pdfrwt>
<pdfrwt beam="2">  1       21 0.17784366E-01 0.41630153E+03</pdfrwt>
<totfact> 0.91899975E+04</totfact>
</mgrwt>
</event>
<event>
 6    0  0.1539497E-004  0.4092382E+03  0.7546771E-02  0.1040627E+00
         21   -1    0    0  502  501  0.00000000000E+00  0.00000000000E+00  0.14561168937E+03  0.14561168937E+03  0.00000000000E+00 0. -1.
         21   -1    0    0  501  502 -0.00000000000E+00 -0.00000000000E+00 -0.28753860749E+03  0.28753860749E+03  0.00000000000E+00 0. -1.
      99925    2    1    2    0    0  0.56851812210E+02  0.21527775753E+02 -0.90726797431E+02  0.28494593074E+03  0.26318673597E+03 0.  0.
         25    1    1    2    0    0 -0.56851812210E+02 -0.21527775753E+02 -0.51200120684E+02  0.14820436612E+03  0.12509000000E+03 0.  0.
         25    1    3    3    0    0  0.58418982038E+01  0.40852663802E+02 -0.27579502376E+02  0.13457787695E+03  0.12509000000E+03 0.  0.
         25    1    3    3    0    0  0.51009914006E+02 -0.19324888049E+02 -0.63147295055E+02  0.15036805378E+03  0.12509000000E+03 0.  0.
<mgrwt>
<rscale>  2 0.40923823E+03</rscale>
<asrwt>0</asrwt>
<pdfrwt beam="1">  1       21 0.21413484E-01 0.40923823E+03</pdfrwt>
<pdfrwt beam="2">  1       21 0.42285088E-01 0.40923823E+03</pdfrwt>
<totfact> 0.10284368E+05</totfact>
</mgrwt>
</event>
<event>
 6    0  0.1539497E-004  0.3986582E+03  0.7546771E-02  0.1044245E+00
         21   -1    0    0  502  501  0.00000000000E+00  0.00000000000E+00  0.91000852607E+03  0.91000852607E+03  0.00000000000E+00 0. -1.
         21   -1    0    0  501  502 -0.00000000000E+00 -0.00000000000E+00 -0.43661227871E+02  0.43661227871E+02  0.00000000000E+00 0. -1.
      99925    2    1    2    0    0  0.30243838554E+02  0.85746162236E+01  0.51006563757E+03  0.57476034047E+03  0.26304805747E+03 0.  0.
         25    1    1    2    0    0 -0.30243838554E+02 -0.85746162236E+01  0.35628166063E+03  0.37890941347E+03  0.12509000000E+03 0.  0.
         25    1    3    3    0    0  0.48067125800E+02  0.14240096114E+02  0.21519912815E+03  0.25391219305E+03  0.12509000000E+03 0.  0.
         25    1    3    3    0    0 -0.17823287247E+02 -0.56654798903E+01  0.29486650942E+03  0.32084814742E+03  0.12509000000E+03 0.  0.
<mgrwt>
<rscale>  2 0.39865820E+03</rscale>
<asrwt>0</asrwt>
<pdfrwt beam="1">  1       21 0.13382477E+00 0.39865820E+03</pdfrwt>
<pdfrwt beam="2">  1       21 0.64207694E-02 0.39865820E+03</pdfrwt>
<totfact> 0.65394040E+04</totfact>
</mgrwt>
</event>
<event>
 6    0  0.1539497E-004  0.5021636E+03  0.7546771E-02  0.1013216E+00
         21   -1    0    0  502  501  0.00000000000E+00  0.00000000000E+00  0.49461979698E+02  0.49461979698E+02  0.00000000000E+00 0.  1.
         21   -1    0    0  501  502 -0.00000000000E+00 -0.00000000000E+00 -0.12745561005E+04  0.12745561005E+04  0.00000000000E+00 0.  1.
      99925    2    1    2    0    0 -0.10183449212E+03  0.92156244126E+02 -0.92123966402E+03  0.96787474372E+03  0.26312727689E+03 0.  0.
         25    1    1    2    0    0  0.10183449212E+03 -0.92156244126E+02 -0.30385445682E+03  0.35614333651E+03  0.12509000000E+03 0.  0.
         25    1    3    3    0    0 -0.47941573852E+02  0.87304158203E+02 -0.46593789205E+03  0.49261144718E+03  0.12509000000E+03 0.  0.
         25    1    3    3    0    0 -0.53892918270E+02  0.48520859226E+01 -0.45530177197E+03  0.47526329654E+03  0.12509000000E+03 0.  0.
<mgrwt>
<rscale>  2 0.50216359E+03</rscale>
<asrwt>0</asrwt>
<pdfrwt beam="1">  1       21 0.72738204E-02 0.50216359E+03</pdfrwt>
<pdfrwt beam="2">  1       21 0.18743472E+00 0.50216359E+03</pdfrwt>
<totfact> 0.20012899E+04</totfact>
</mgrwt>
</event>
<event>
 6    0  0.1539497E-004  0.3989604E+03  0.7546771E-02  0.1044140E+00
         21   -1    0    0  502  501  0.00000000000E+00  0.00000000000E+00  0.27618767609E+03  0.27618767609E+03  0.00000000000E+00 0. -1.
         21   -1    0    0  501  502 -0.00000000000E+00 -0.00000000000E+00 -0.14407717936E+03  0.14407717936E+03  0.00000000000E+00 0. -1.
      99925    2    1    2    0    0 -0.76311417491E+01 -0.96707536984E+01  0.44203787766E+02  0.26688019069E+03  0.26290550304E+03 0.  0.
         25    1    3    3    0    0 -0.25892855516E+02 -0.36679964272E+02  0.34148720194E+02  0.13722063597E+03  0.12509000000E+03 0.  0.
         25    1    3    3    0    0  0.18261713766E+02  0.27009210573E+02  0.10055067572E+02  0.12965955472E+03  0.12509000000E+03 0.  0.
         25    1    1    2    0    0  0.76311417491E+01  0.96707536984E+01  0.87906708969E+02  0.15338466476E+03  0.12509000000E+03 0.  0.
<mgrwt>
<rscale>  2 0.39896036E+03</rscale>
<asrwt>0</asrwt>
<pdfrwt beam="1">  1       21 0.40615835E-01 0.39896036E+03</pdfrwt>
<pdfrwt beam="2">  1       21 0.21187820E-01 0.39896036E+03</pdfrwt>
<totfact> 0.11428882E+05</totfact>
</mgrwt>
</event>
<event>
 6    0  0.1539497E-004  0.5207468E+03  0.7546771E-02  0.1008501E+00
         21   -1    0    0  502  501  0.00000000000E+00  0.00000000000E+00  0.14127940321E+04  0.14127940321E+04  0.00000000000E+00 0.  1.
         21   -1    0    0  501  502 -0.00000000000E+00 -0.00000000000E+00 -0.47985971732E+02  0.47985971732E+02  0.00000000000E+00 0.  1.
      99925    2    1    2    0    0  0.83828861302E+02 -0.70117604711E+02  0.46146884040E+03  0.54229592073E+03  0.26303539401E+03 0.  0.
         25    1    3    3    0    0  0.25688880986E+02 -0.27053440280E+02  0.29021178458E+03  0.31821721394E+03  0.12509000000E+03 0.  0.
         25    1    1    2    0    0 -0.83828861302E+02  0.70117604711E+02  0.90333921993E+03  0.91848408307E+03  0.12509000000E+03 0.  0.
         25    1    3    3    0    0  0.58139980316E+02 -0.43064164431E+02  0.17125705581E+03  0.22407870678E+03  0.12509000000E+03 0.  0.
<mgrwt>
<rscale>  2 0.52074675E+03</rscale>
<asrwt>0</asrwt>
<pdfrwt beam="1">  1       21 0.20776380E+00 0.52074675E+03</pdfrwt>
<pdfrwt beam="2">  1       21 0.70567614E-02 0.52074675E+03</pdfrwt>
<totfact> 0.15313270E+04</totfact>
</mgrwt>
</event>
<event>
 6    0  0.1539497E-004  0.4112782E+03  0.7546771E-02  0.1039943E+00
         21   -1    0    0  502  501  0.00000000000E+00  0.00000000000E+00  0.67490738720E+02  0.67490738720E+02  0.00000000000E+00 0.  1.
         21   -1    0    0  501  502 -0.00000000000E+00 -0.00000000000E+00 -0.62656648127E+03  0.62656648127E+03  0.00000000000E+00 0.  1.
      99925    2    1    2    0    0 -0.29510561398E+02 -0.55199967764E+02 -0.34941070188E+03  0.44201586019E+03  0.26338616590E+03 0.  0.
         25    1    1    2    0    0  0.29510561398E+02  0.55199967764E+02 -0.20966504067E+03  0.25204135981E+03  0.12509000000E+03 0.  0.
         25    1    3    3    0    0 -0.32314256914E+02 -0.55071155704E+01 -0.12222051975E+03  0.17793229912E+03  0.12509000000E+03 0.  0.
         25    1    3    3    0    0  0.28036955154E+01 -0.49692852194E+02 -0.22719018213E+03  0.26408356107E+03  0.12509000000E+03 0.  0.
<mgrwt>
<rscale>  2 0.41127818E+03</rscale>
<asrwt>0</asrwt>
<pdfrwt beam="1">  1       21 0.99251092E-02 0.41127818E+03</pdfrwt>
<pdfrwt beam="2">  1       21 0.92142124E-01 0.41127818E+03</pdfrwt>
<totfact> 0.76279608E+04</totfact>
</mgrwt>
</event>
<event>
 6    0  0.1539497E-004  0.4393210E+03  0.7546771E-02  0.1030955E+00
         21   -1    0    0  502  501  0.00000000000E+00  0.00000000000E+00  0.12606683990E+03  0.12606683990E+03  0.00000000000E+00 0.  1.
         21   -1    0    0  501  502 -0.00000000000E+00 -0.00000000000E+00 -0.38273933612E+03  0.38273933612E+03  0.00000000000E+00 0.  1.
      99925    2    1    2    0    0  0.55430354982E+00 -0.92116467241E+02 -0.20170215773E+03  0.34401844286E+03  0.26301934872E+03 0.  0.
         25    1    3    3    0    0 -0.86974980877E+01 -0.40253150330E+02 -0.14784177218E+03  0.19799156620E+03  0.12509000000E+03 0.  0.
         25    1    3    3    0    0  0.92518016375E+01 -0.51863316910E+02 -0.53860385553E+02  0.14602687666E+03  0.12509000000E+03 0.  0.
         25    1    1    2    0    0 -0.55430354982E+00  0.92116467241E+02 -0.54970338486E+02  0.16478773317E+03  0.12509000000E+03 0.  0.
<mgrwt>
<rscale>  2 0.43932102E+03</rscale>
<asrwt>0</asrwt>
<pdfrwt beam="1">  1       21 0.18539241E-01 0.43932102E+03</pdfrwt>
<pdfrwt beam="2">  1       21 0.56285196E-01 0.43932102E+03</pdfrwt>
<totfact> 0.73366015E+04</totfact>
</mgrwt>
</event>
<event>
 6    0  0.1539497E-004  0.4085433E+03  0.7546771E-02  0.1040861E+00
         21   -1    0    0  502  501  0.00000000000E+00  0.00000000000E+00  0.13723611654E+03  0.13723611654E+03  0.00000000000E+00 0. -1.
         21   -1    0    0  501  502 -0.00000000000E+00 -0.00000000000E+00 -0.30405193315E+03  0.30405193315E+03  0.00000000000E+00 0. -1.
      99925    2    1    2    0    0  0.46442540490E+02 -0.36896174894E+02 -0.99366248124E+02  0.28729068063E+03  0.26295255584E+03 0.  0.
         25    1    3    3    0    0  0.31486530325E+02 -0.21085259399E+02 -0.81596952579E+01  0.13095830818E+03  0.12509000000E+03 0.  0.
         25    1    1    2    0    0 -0.46442540490E+02  0.36896174894E+02 -0.67449568480E+02  0.15399736906E+03  0.12509000000E+03 0.  0.
         25    1    3    3    0    0  0.14956010165E+02 -0.15810915496E+02 -0.91206552866E+02  0.15633237245E+03  0.12509000000E+03 0.  0.
<mgrwt>
<rscale>  2 0.40854330E+03</rscale>
<asrwt>0</asrwt>
<pdfrwt beam="1">  1       21 0.20181782E-01 0.40854330E+03</pdfrwt>
<pdfrwt beam="2">  1       21 0.44713520E-01 0.40854330E+03</pdfrwt>
<totfact> 0.10252819E+05</totfact>
</mgrwt>
</event>
<event>
 6    0  0.1539497E-004  0.7361312E+03  0.7546771E-02  0.9657363E-01
         21   -1    0    0  502  501  0.00000000000E+00  0.00000000000E+00  0.55911280637E+03  0.55911280637E+03  0.00000000000E+00 0.  1.
         21   -1    0    0  501  502 -0.00000000000E+00 -0.00000000000E+00 -0.24229863428E+03  0.24229863428E+03  0.00000000000E+00 0.  1.
      99925    2    1    2    0    0 -0.27959193723E+03 -0.50504064305E+02  0.46760122894E+02  0.38995183210E+03  0.26297074056E+03 0.  0.
         25    1    3    3    0    0 -0.17379288801E+03 -0.18137204063E+02  0.57968047774E+02  0.22257746686E+03  0.12509000000E+03 0.  0.
         25    1    3    3    0    0 -0.10579904923E+03 -0.32366860242E+02 -0.11207924880E+02  0.16737436524E+03  0.12509000000E+03 0.  0.
         25    1    1    2    0    0  0.27959193723E+03  0.50504064305E+02  0.27005404920E+03  0.41145960855E+03  0.12509000000E+03 0.  0.
<mgrwt>
<rscale>  2 0.73613116E+03</rscale>
<asrwt>0</asrwt>
<pdfrwt beam="1">  1       21 0.82222472E-01 0.73613116E+03</pdfrwt>
<pdfrwt beam="2">  1       21 0.35632152E-01 0.73613116E+03</pdfrwt>
<totfact> 0.81675998E+03</totfact>
</mgrwt>
</event>
<event>
 6    0  0.1539497E-004  0.4204620E+03  0.7546771E-02  0.1036916E+00
         21   -1    0    0  502  501  0.00000000000E+00  0.00000000000E+00  0.17353871355E+03  0.17353871355E+03  0.00000000000E+00 0. -1.
         21   -1    0    0  501  502 -0.00000000000E+00 -0.00000000000E+00 -0.25468130410E+03  0.25468130410E+03  0.00000000000E+00 0. -1.
      99925    2    1    2    0    0  0.57612397268E+02  0.12835416012E+02 -0.30225540494E+01  0.26936730465E+03  0.26280348696E+03 0.  0.
         25    1    3    3    0    0  0.64886453827E+02  0.34361403400E+01 -0.20718684817E+02  0.14247396587E+03  0.12509000000E+03 0.  0.
         25    1    3    3    0    0 -0.72740565594E+01  0.93992756716E+01  0.17696130768E+02  0.12689333878E+03  0.12509000000E+03 0.  0.
         25    1    1    2    0    0 -0.57612397268E+02 -0.12835416012E+02 -0.78120036497E+02  0.15885271299E+03  0.12509000000E+03 0.  0.
<mgrwt>
<rscale>  2 0.42046196E+03</rscale>
<asrwt>0</asrwt>
<pdfrwt beam="1">  1       21 0.25520400E-01 0.42046196E+03</pdfrwt>
<pdfrwt beam="2">  1       21 0.37453132E-01 0.42046196E+03</pdfrwt>
<totfact> 0.93860389E+04</totfact>
</mgrwt>
</event>
<event>
 5    0  0.1539497E-004  0.4392176E+03  0.7546771E-02  0.1030987E+00
         21   -1    0    0  502  501  0.00000000000E+00  0.00000000000E+00  0.56354916992E+02  0.56354916992E+02  0.00000000000E+00 0. -1.
         21   -1    0    0  501  502 -0.00000000000E+00 -0.00000000000E+00 -0.85579088936E+03  0.85579088936E+03  0.00000000000E+00 0. -1.
         25    1    1    2    0    0  0.58048180117E+02 -0.56523453641E+02 -0.21418887214E+03  0.26093844691E+03  0.12509000000E+03 0.  0.
         25    1    1    2    0    0  0.10791719640E+02 -0.13563319427E+02 -0.27236364080E+03  0.30021639824E+03  0.12509000000E+03 0.  0.
         25    1    1    2    0    0 -0.68839899757E+02  0.70086773068E+02 -0.31288345943E+03  0.35099096119E+03  0.12509000000E+03 0.  0.
<mgrwt>
<rscale>  2 0.43921760E+03</rscale>
<asrwt>0</asrwt>
<pdfrwt beam="1">  1       21 0.82874885E-02 0.43921760E+03</pdfrwt>
<pdfrwt beam="2">  1       21 0.12585159E+00 0.43921760E+03</pdfrwt>
<totfact> 0.48420430E+04</totfact>
</mgrwt>
</event>
<event>
 6    0  0.1539497E-004  0.3960402E+03  0.7546771E-02  0.1045159E+00
         21   -1    0    0  502  501  0.00000000000E+00  0.00000000000E+00  0.51726164002E+03  0.51726164002E+03  0.00000000000E+00 0. -1.
         21   -1    0    0  501  502 -0.00000000000E+00 -0.00000000000E+00 -0.75806823680E+02  0.75806823680E+02  0.00000000000E+00 0. -1.
      99925    2    1    2    0    0  0.88642695337E+00  0.37195009627E+02  0.29989975440E+03  0.40053379629E+03  0.26287488428E+03 0.  0.
         25    1    1    2    0    0 -0.88642695337E+00 -0.37195009627E+02  0.14155506195E+03  0.19253466741E+03  0.12509000000E+03 0.  0.
         25    1    3    3    0    0  0.14305569620E+01 -0.18758676459E+02  0.16832989529E+03  0.21056209579E+03  0.12509000000E+03 0.  0.
         25    1    3    3    0    0 -0.54413000861E+00  0.55953686086E+02  0.13156985911E+03  0.18997170050E+03  0.12509000000E+03 0.  0.
<mgrwt>
<rscale>  2 0.39604021E+03</rscale>
<asrwt>0</asrwt>
<pdfrwt beam="1">  1       21 0.76067887E-01 0.39604021E+03</pdfrwt>
<pdfrwt beam="2">  1       21 0.11148062E-01 0.39604021E+03</pdfrwt>
<totfact> 0.96978471E+04</totfact>
</mgrwt>
</event>
<event>
 6    0  0.1539497E-004  0.4452666E+03  0.7546771E-02  0.1029143E+00
         21   -1    0    0  502  501  0.00000000000E+00  0.00000000000E+00  0.35382579783E+02  0.35382579783E+02  0.00000000000E+00 0.  1.
         21   -1    0    0  501  502 -0.00000000000E+00 -0.00000000000E+00 -0.14008469801E+04  0.14008469801E+04  0.00000000000E+00 0.  1.
      99925    2    1    2    0    0 -0.61518901131E+02  0.29438320899E+01 -0.59746020529E+03  0.65567130259E+03  0.26296942559E+03 0.  0.
         25    1    3    3    0    0 -0.55736044377E+02 -0.30857112331E+02 -0.30943495544E+03  0.33978841618E+03  0.12509000000E+03 0.  0.
         25    1    1    2    0    0  0.61518901131E+02 -0.29438320899E+01 -0.76800419502E+03  0.78055825728E+03  0.12509000000E+03 0.  0.
         25    1    3    3    0    0 -0.57828567542E+01  0.33800944421E+02 -0.28802524985E+03  0.31588288641E+03  0.12509000000E+03 0.  0.
<mgrwt>
<rscale>  2 0.44526657E+03</rscale>
<asrwt>0</asrwt>
<pdfrwt beam="1">  1       21 0.52033220E-02 0.44526657E+03</pdfrwt>
<pdfrwt beam="2">  1       21 0.20600685E+00 0.44526657E+03</pdfrwt>
<totfact> 0.27396524E+04</totfact>
</mgrwt>
</event>
<event>
 6    0  0.1539497E-004  0.4328379E+03  0.7546771E-02  0.1032967E+00
         21   -1    0    0  502  501  0.00000000000E+00  0.00000000000E+00  0.62602829897E+02  0.62602829897E+02  0.00000000000E+00 0. -1.
         21   -1    0    0  501  502 -0.00000000000E+00 -0.00000000000E+00 -0.74816369658E+03  0.74816369658E+03  0.00000000000E+00 0. -1.
      99925    2    1    2    0    0  0.55072711462E+02  0.43504230394E+00 -0.57614114835E+03  0.63568547191E+03  0.26291482187E+03 0.  0.
         25    1    3    3    0    0  0.64479329369E+02 -0.17249825054E+02 -0.31499286966E+03  0.34543184048E+03  0.12509000000E+03 0.  0.
         25    1    3    3    0    0 -0.94066179071E+01  0.17684867358E+02 -0.26114827869E+03  0.29025363143E+03  0.12509000000E+03 0.  0.
         25    1    1    2    0    0 -0.55072711462E+02 -0.43504230394E+00 -0.10941971833E+03  0.17508105457E+03  0.12509000000E+03 0.  0.
<mgrwt>
<rscale>  2 0.43283791E+03</rscale>
<asrwt>0</asrwt>
<pdfrwt beam="1">  1       21 0.92062993E-02 0.43283791E+03</pdfrwt>
<pdfrwt beam="2">  1       21 0.11002406E+00 0.43283791E+03</pdfrwt>
<totfact> 0.56442799E+04</totfact>
</mgrwt>
</event>
<event>
 6    0  0.1539497E-004  0.3887276E+03  0.7546771E-02  0.1047754E+00
         21   -1    0    0  502  501  0.00000000000E+00  0.00000000000E+00  0.28468846690E+03  0.28468846690E+03  0.00000000000E+00 0.  1.
         21   -1    0    0  501  502 -0.00000000000E+00 -0.00000000000E+00 -0.13269692893E+03  0.13269692893E+03  0.00000000000E+00 0.  1.
      99925    2    1    2    0    0  0.72305318429E+01  0.40956359072E+01  0.96468951371E+02  0.28027478155E+03  0.26301832592E+03 0.  0.
         25    1    1    2    0    0 -0.72305318429E+01 -0.40956359072E+01  0.55522586600E+02  0.13711061428E+03  0.12509000000E+03 0.  0.
         25    1    3    3    0    0 -0.20689150321E+02 -0.25034071626E+02  0.28657674453E+02  0.13237641817E+03  0.12509000000E+03 0.  0.
         25    1    3    3    0    0  0.27919682164E+02  0.29129707533E+02  0.67811276918E+02  0.14789836338E+03  0.12509000000E+03 0.  0.
<mgrwt>
<rscale>  2 0.38872759E+03</rscale>
<asrwt>0</asrwt>
<pdfrwt beam="1">  1       21 0.41865951E-01 0.38872759E+03</pdfrwt>
<pdfrwt beam="2">  1       21 0.19514254E-01 0.38872759E+03</pdfrwt>
<totfact> 0.12579670E+05</totfact>
</mgrwt>
</event>
<event>
 6    0  0.1539497E-004  0.4599833E+03  0.7546771E-02  0.1024786E+00
         21   -1    0    0  502  501  0.00000000000E+00  0.00000000000E+00  0.68632836128E+02  0.68632836128E+02  0.00000000000E+00 0.  1.
         21   -1    0    0  501  502 -0.00000000000E+00 -0.00000000000E+00 -0.77071205208E+03  0.77071205208E+03  0.00000000000E+00 0.  1.
      99925    2    1    2    0    0  0.24953033640E+02 -0.68933403835E+02 -0.27126776946E+03  0.38478963461E+03  0.26287333851E+03 0.  0.
         25    1    3    3    0    0  0.32750241269E+02 -0.10288892609E+02 -0.16736989907E+03  0.21175134198E+03  0.12509000000E+03 0.  0.
         25    1    3    3    0    0 -0.77972076293E+01 -0.58644511226E+02 -0.10389787040E+03  0.17303829263E+03  0.12509000000E+03 0.  0.
         25    1    1    2    0    0 -0.24953033640E+02  0.68933403835E+02 -0.43081144649E+03  0.45455525360E+03  0.12509000000E+03 0.  0.
<mgrwt>
<rscale>  2 0.45998328E+03</rscale>
<asrwt>0</asrwt>
<pdfrwt beam="1">  1       21 0.10093064E-01 0.45998328E+03</pdfrwt>
<pdfrwt beam="2">  1       21 0.11334001E+00 0.45998328E+03</pdfrwt>
<totfact> 0.44167571E+04</totfact>
</mgrwt>
</event>
<event>
 6    0  0.1539497E-004  0.4274036E+03  0.7546771E-02  0.1034683E+00
         21   -1    0    0  502  501  0.00000000000E+00  0.00000000000E+00  0.37549775321E+03  0.37549775321E+03  0.00000000000E+00 0. -1.
         21   -1    0    0  501  502 -0.00000000000E+00 -0.00000000000E+00 -0.12162110899E+03  0.12162110899E+03  0.00000000000E+00 0. -1.
      99925    2    1    2    0    0 -0.64304957839E+02 -0.72822969176E+01  0.22798594611E+03  0.35391971486E+03  0.26285626013E+03 0.  0.
         25    1    1    2    0    0  0.64304957839E+02  0.72822969176E+01  0.25890698106E+02  0.14319914734E+03  0.12509000000E+03 0.  0.
         25    1    3    3    0    0 -0.16442168252E+02  0.33578176693E+02  0.10475172323E+03  0.16738658987E+03  0.12509000000E+03 0.  0.
         25    1    3    3    0    0 -0.47862789588E+02 -0.40860473611E+02  0.12323422288E+03  0.18653312499E+03  0.12509000000E+03 0.  0.
<mgrwt>
<rscale>  2 0.42740357E+03</rscale>
<asrwt>0</asrwt>
<pdfrwt beam="1">  1       21 0.55220258E-01 0.42740357E+03</pdfrwt>
<pdfrwt beam="2">  1       21 0.17885457E-01 0.42740357E+03</pdfrwt>
<totfact> 0.82009763E+04</totfact>
</mgrwt>
</event>
<event>
 6    0  0.1539497E-004  0.4335542E+03  0.7546771E-02  0.1032743E+00
         21   -1    0    0  502  501  0.00000000000E+00  0.00000000000E+00  0.33733177980E+03  0.33733177980E+03  0.00000000000E+00 0.  1.
         21   -1    0    0  501  502 -0.00000000000E+00 -0.00000000000E+00 -0.13930592685E+03  0.13930592685E+03  0.00000000000E+00 0.  1.
      99925    2    1    2    0    0 -0.33448194289E+02  0.48802862792E+02  0.50288793418E+02  0.27421673941E+03  0.26299307275E+03 0.  0.
         25    1    3    3    0    0  0.22320311901E+01  0.35047584325E+02  0.59880415159E+02  0.14306113151E+03  0.12509000000E+03 0.  0.
         25    1    1    2    0    0  0.33448194289E+02 -0.48802862792E+02  0.14773705953E+03  0.20242096724E+03  0.12509000000E+03 0.  0.
         25    1    3    3    0    0 -0.35680225480E+02  0.13755278467E+02 -0.95916217409E+01  0.13115560790E+03  0.12509000000E+03 0.  0.
<mgrwt>
<rscale>  2 0.43355422E+03</rscale>
<asrwt>0</asrwt>
<pdfrwt beam="1">  1       21 0.49607615E-01 0.43355422E+03</pdfrwt>
<pdfrwt beam="2">  1       21 0.20486166E-01 0.43355422E+03</pdfrwt>
<totfact> 0.79669267E+04</totfact>
</mgrwt>
</event>
<event>
 6    0  0.1539497E-004  0.4143917E+03  0.7546771E-02  0.1038907E+00
         21   -1    0    0  502  501  0.00000000000E+00  0.00000000000E+00  0.13440203810E+03  0.13440203810E+03  0.00000000000E+00 0. -1.
         21   -1    0    0  501  502 -0.00000000000E+00 -0.00000000000E+00 -0.31941566005E+03  0.31941566005E+03  0.00000000000E+00 0. -1.
      99925    2    1    2    0    0 -0.50536447127E+02 -0.37110461389E+02 -0.15217962038E+03  0.31009331402E+03  0.26280811957E+03 0.  0.
         25    1    1    2    0    0  0.50536447127E+02  0.37110461389E+02 -0.32834001580E+02  0.14372438413E+03  0.12509000000E+03 0.  0.
         25    1    3    3    0    0  0.79302960526E+01  0.40535601383E+01 -0.59775718872E+02  0.13892431613E+03  0.12509000000E+03 0.  0.
         25    1    3    3    0    0 -0.58466743180E+02 -0.41164021527E+02 -0.92403901506E+02  0.17116899789E+03  0.12509000000E+03 0.  0.
<mgrwt>
<rscale>  2 0.41439168E+03</rscale>
<asrwt>0</asrwt>
<pdfrwt beam="1">  1       21 0.19765006E-01 0.41439168E+03</pdfrwt>
<pdfrwt beam="2">  1       21 0.46972890E-01 0.41439168E+03</pdfrwt>
<totfact> 0.96088563E+04</totfact>
</mgrwt>
</event>
<event>
 6    0  0.1539497E-004  0.4894805E+03  0.7546771E-02  0.1016562E+00
         21   -1    0    0  502  501  0.00000000000E+00  0.00000000000E+00  0.37420614425E+03  0.37420614425E+03  0.00000000000E+00 0.  1.
         21   -1    0    0  501  502 -0.00000000000E+00 -0.00000000000E+00 -0.16006629771E+03  0.16006629771E+03  0.00000000000E+00 0.  1.
      99925    2    1    2    0    0 -0.12027324760E+03 -0.45016898851E+02  0.19973341425E+03  0.35441908875E+03  0.26311077216E+03 0.  0.
         25    1    3    3    0    0 -0.63034888723E+02  0.15254013455E+02  0.11571260386E+03  0.18232662152E+03  0.12509000000E+03 0.  0.
         25    1    1    2    0    0  0.12027324760E+03  0.45016898851E+02  0.14406432284E+02  0.17985335321E+03  0.12509000000E+03 0.  0.
         25    1    3    3    0    0 -0.57238358881E+02 -0.60270912305E+02  0.84020810391E+02  0.17209246723E+03  0.12509000000E+03 0.  0.
<mgrwt>
<rscale>  2 0.48948051E+03</rscale>
<asrwt>0</asrwt>
<pdfrwt beam="1">  1       21 0.55030315E-01 0.48948051E+03</pdfrwt>
<pdfrwt beam="2">  1       21 0.23539161E-01 0.48948051E+03</pdfrwt>
<totfact> 0.48295380E+04</totfact>
</mgrwt>
</event>
<event>
 6    0  0.1539497E-004  0.3960774E+03  0.7546771E-02  0.1045146E+00
         21   -1    0    0  502  501  0.00000000000E+00  0.00000000000E+00  0.25195711206E+03  0.25195711206E+03  0.00000000000E+00 0. -1.
         21   -1    0    0  501  502 -0.00000000000E+00 -0.00000000000E+00 -0.15565870372E+03  0.15565870372E+03  0.00000000000E+00 0. -1.
      99925    2    1    2    0    0 -0.29011050986E+02 -0.20348348095E+02  0.53461699319E+02  0.27072831420E+03  0.26302085557E+03 0.  0.
         25    1    1    2    0    0  0.29011050986E+02  0.20348348095E+02  0.42836709016E+02  0.13688750158E+03  0.12509000000E+03 0.  0.
         25    1    3    3    0    0 -0.48100137103E+02 -0.15722116138E+01  0.56031876330E+01  0.13414543917E+03  0.12509000000E+03 0.  0.
         25    1    3    3    0    0  0.19089086118E+02 -0.18776136481E+02  0.47858511686E+02  0.13658287503E+03  0.12509000000E+03 0.  0.
<mgrwt>
<rscale>  2 0.39607735E+03</rscale>
<asrwt>0</asrwt>
<pdfrwt beam="1">  1       21 0.37052517E-01 0.39607735E+03</pdfrwt>
<pdfrwt beam="2">  1       21 0.22890986E-01 0.39607735E+03</pdfrwt>
<totfact> 0.11898348E+05</totfact>
</mgrwt>
</event>
<event>
 6    0  0.1539497E-004  0.4887398E+03  0.7546771E-02  0.1016760E+00
         21   -1    0    0  502  501  0.00000000000E+00  0.00000000000E+00  0.21295324686E+03  0.21295324686E+03  0.00000000000E+00 0.  1.
         21   -1    0    0  501  502 -0.00000000000E+00 -0.00000000000E+00 -0.28042141883E+03  0.28042141883E+03  0.00000000000E+00 0.  1.
      99925    2    1    2    0    0  0.13679084018E+03 -0.38823345919E+02 -0.31556491083E+02  0.30061537779E+03  0.26297301590E+03 0.  0.
         25    1    3    3    0    0  0.11122069832E+03 -0.31874645753E+02 -0.28167564867E+02  0.17270482503E+03  0.12509000000E+03 0.  0.
         25    1    1    2    0    0 -0.13679084018E+03  0.38823345919E+02 -0.35911680885E+02  0.19275928789E+03  0.12509000000E+03 0.  0.
         25    1    3    3    0    0  0.25570141856E+02 -0.69487001666E+01 -0.33889262164E+01  0.12791055277E+03  0.12509000000E+03 0.  0.
<mgrwt>
<rscale>  2 0.48873981E+03</rscale>
<asrwt>0</asrwt>
<pdfrwt beam="1">  1       21 0.31316654E-01 0.48873981E+03</pdfrwt>
<pdfrwt beam="2">  1       21 0.41238444E-01 0.48873981E+03</pdfrwt>
<totfact> 0.50722645E+04</totfact>
</mgrwt>
</event>
<event>
 6    0  0.1539497E-004  0.4629737E+03  0.7546771E-02  0.1023922E+00
         21   -1    0    0  502  501  0.00000000000E+00  0.00000000000E+00  0.22819481029E+03  0.22819481029E+03  0.00000000000E+00 0. -1.
         21   -1    0    0  501  502 -0.00000000000E+00 -0.00000000000E+00 -0.23482640410E+03  0.23482640410E+03  0.00000000000E+00 0. -1.
      99925    2    1    2    0    0 -0.73087266900E+02  0.18661282029E+02  0.89800144291E+02  0.28798813111E+03  0.26302681558E+03 0.  0.
         25    1    1    2    0    0  0.73087266900E+02 -0.18661282029E+02 -0.96431738098E+02  0.17503308328E+03  0.12509000000E+03 0.  0.
         25    1    3    3    0    0 -0.55030960471E+02  0.14042331206E+02  0.84747594472E+02  0.16141640730E+03  0.12509000000E+03 0.  0.
         25    1    3    3    0    0 -0.18056306429E+02  0.46189508237E+01  0.50525498193E+01  0.12657172381E+03  0.12509000000E+03 0.  0.
<mgrwt>
<rscale>  2 0.46297372E+03</rscale>
<asrwt>0</asrwt>
<pdfrwt beam="1">  1       21 0.33558060E-01 0.46297372E+03</pdfrwt>
<pdfrwt beam="2">  1       21 0.34533295E-01 0.46297372E+03</pdfrwt>
<totfact> 0.63805059E+04</totfact>
</mgrwt>
</event>
<event>
 6    0  0.1539497E-004  0.4147071E+03  0.7546771E-02  0.1038803E+00
         21   -1    0    0  502  501  0.00000000000E+00  0.00000000000E+00  0.33625117822E+03  0.33625117822E+03  0.00000000000E+00 0. -1.
         21   -1    0    0  501  502 -0.00000000000E+00 -0.00000000000E+00 -0.12786721952E+03  0.12786721952E+03  0.00000000000E+00 0. -1.
      99925    2    1    2    0    0 -0.47790496582E+02 -0.49613927860E+02  0.14012901894E+03  0.30584105160E+03  0.26297743913E+03 0.  0.
         25    1    1    2    0    0  0.47790496582E+02  0.49613927860E+02  0.68254939756E+02  0.15827734614E+03  0.12509000000E+03 0.  0.
         25    1    3    3    0    0 -0.29038023919E+01 -0.56736775741E+02  0.86517319908E+02  0.16235839533E+03  0.12509000000E+03 0.  0.
         25    1    3    3    0    0 -0.44886694190E+02  0.71228478805E+01  0.53611699037E+02  0.14348265627E+03  0.12509000000E+03 0.  0.
<mgrwt>
<rscale>  2 0.41470714E+03</rscale>
<asrwt>0</asrwt>
<pdfrwt beam="1">  1       21 0.49448702E-01 0.41470714E+03</pdfrwt>
<pdfrwt beam="2">  1       21 0.18804003E-01 0.41470714E+03</pdfrwt>
<totfact> 0.94738889E+04</totfact>
</mgrwt>
</event>
<event>
 6    0  0.1539497E-004  0.4562727E+03  0.7546771E-02  0.1025868E+00
         21   -1    0    0  502  501  0.00000000000E+00  0.00000000000E+00  0.15973359627E+03  0.15973359627E+03  0.00000000000E+00 0.  1.
         21   -1    0    0  501  502 -0.00000000000E+00 -0.00000000000E+00 -0.32583118294E+03  0.32583118294E+03  0.00000000000E+00 0.  1.
      99925    2    1    2    0    0  0.72552213645E+02 -0.21007314439E+02 -0.12960223753E+02  0.27389595537E+03  0.26295607239E+03 0.  0.
         25    1    3    3    0    0  0.67691126784E+02 -0.23189299528E+02  0.17141825248E+02  0.14512471371E+03  0.12509000000E+03 0.  0.
         25    1    3    3    0    0  0.48610868610E+01  0.21819850884E+01 -0.30102049001E+02  0.12877124166E+03  0.12509000000E+03 0.  0.
         25    1    1    2    0    0 -0.72552213645E+02  0.21007314439E+02 -0.15313736291E+03  0.21166882384E+03  0.12509000000E+03 0.  0.
<mgrwt>
<rscale>  2 0.45627267E+03</rscale>
<asrwt>0</asrwt>
<pdfrwt beam="1">  1       21 0.23490235E-01 0.45627267E+03</pdfrwt>
<pdfrwt beam="2">  1       21 0.47916350E-01 0.45627267E+03</pdfrwt>
<totfact> 0.65631629E+04</totfact>
</mgrwt>
</event>
<event>
 6    0  0.1539497E-004  0.4166769E+03  0.7546771E-02  0.1038153E+00
         21   -1    0    0  502  501  0.00000000000E+00  0.00000000000E+00  0.10063671120E+03  0.10063671120E+03  0.00000000000E+00 0. -1.
         21   -1    0    0  501  502 -0.00000000000E+00 -0.00000000000E+00 -0.43130287752E+03  0.43130287752E+03  0.00000000000E+00 0. -1.
      99925    2    1    2    0    0 -0.46474888222E+02  0.52419437231E+02 -0.19815788908E+03  0.33671237680E+03  0.26306075924E+03 0.  0.
         25    1    3    3    0    0 -0.48593703605E+02  0.18107501721E+02 -0.13925357804E+03  0.19423773255E+03  0.12509000000E+03 0.  0.
         25    1    1    2    0    0  0.46474888222E+02 -0.52419437231E+02 -0.13250827724E+03  0.19522721192E+03  0.12509000000E+03 0.  0.
         25    1    3    3    0    0  0.21188153831E+01  0.34311935510E+02 -0.58904311041E+02  0.14247464426E+03  0.12509000000E+03 0.  0.
<mgrwt>
<rscale>  2 0.41667687E+03</rscale>
<asrwt>0</asrwt>
<pdfrwt beam="1">  1       21 0.14799516E-01 0.41667687E+03</pdfrwt>
<pdfrwt beam="2">  1       21 0.63426894E-01 0.41667687E+03</pdfrwt>
<totfact> 0.86470314E+04</totfact>
</mgrwt>
</event>
<event>
 6    0  0.1539497E-004  0.4267350E+03  0.7546771E-02  0.1034896E+00
         21   -1    0    0  502  501  0.00000000000E+00  0.00000000000E+00  0.23527262158E+04  0.23527262158E+04  0.00000000000E+00 0. -1.
         21   -1    0    0  501  502 -0.00000000000E+00 -0.00000000000E+00 -0.19350184679E+02  0.19350184679E+02  0.00000000000E+00 0. -1.
      99925    2    1    2    0    0 -0.25412201125E+02  0.77198607356E+02  0.13896465882E+04  0.14166298167E+04  0.26290110781E+03 0.  0.
         25    1    3    3    0    0 -0.42614473620E+02  0.25936408053E+02  0.81454632929E+03  0.82560397364E+03  0.12509000000E+03 0.  0.
         25    1    1    2    0    0  0.25412201125E+02 -0.77198607356E+02  0.94372944291E+03  0.95544658378E+03  0.12509000000E+03 0.  0.
         25    1    3    3    0    0  0.17202272496E+02  0.51262199303E+02  0.57510025892E+03  0.59102584306E+03  0.12509000000E+03 0.  0.
<mgrwt>
<rscale>  2 0.42673498E+03</rscale>
<asrwt>0</asrwt>
<pdfrwt beam="1">  1       21 0.34598895E+00 0.42673498E+03</pdfrwt>
<pdfrwt beam="2">  1       21 0.28456170E-02 0.42673498E+03</pdfrwt>
<totfact> 0.10693897E+04</totfact>
</mgrwt>
</event>
<event>
 6    0  0.1539497E-004  0.4660485E+03  0.7546771E-02  0.1023041E+00
         21   -1    0    0  502  501  0.00000000000E+00  0.00000000000E+00  0.14868203966E+04  0.14868203966E+04  0.00000000000E+00 0. -1.
         21   -1    0    0  501  502 -0.00000000000E+00 -0.00000000000E+00 -0.36521094025E+02  0.36521094025E+02  0.00000000000E+00 0. -1.
      99925    2    1    2    0    0  0.41585871680E+02  0.24186889456E+02  0.12751249460E+04  0.13027786795E+04  0.26262952907E+03 0.  0.
         25    1    1    2    0    0 -0.41585871680E+02 -0.24186889456E+02  0.17517435658E+03  0.22056281112E+03  0.12509000000E+03 0.  0.
         25    1    3    3    0    0  0.54415663712E+02  0.34859154885E+02  0.67610886739E+03  0.69061344745E+03  0.12509000000E+03 0.  0.
         25    1    3    3    0    0 -0.12829792032E+02 -0.10672265429E+02  0.59901607864E+03  0.61216523209E+03  0.12509000000E+03 0.  0.
<mgrwt>
<rscale>  2 0.46604853E+03</rscale>
<asrwt>0</asrwt>
<pdfrwt beam="1">  1       21 0.21865002E+00 0.46604853E+03</pdfrwt>
<pdfrwt beam="2">  1       21 0.53707501E-02 0.46604853E+03</pdfrwt>
<totfact> 0.21323504E+04</totfact>
</mgrwt>
</event>
<event>
 6    0  0.1539497E-004  0.4958893E+03  0.7546771E-02  0.1014857E+00
         21   -1    0    0  502  501  0.00000000000E+00  0.00000000000E+00  0.22400720485E+03  0.22400720485E+03  0.00000000000E+00 0. -1.
         21   -1    0    0  501  502 -0.00000000000E+00 -0.00000000000E+00 -0.27444008398E+03  0.27444008398E+03  0.00000000000E+00 0. -1.
      99925    2    1    2    0    0  0.92066565849E+01 -0.14672904322E+03 -0.11265196173E+02  0.30148081924E+03  0.26296312494E+03 0.  0.
         25    1    3    3    0    0  0.11054090859E+02 -0.36358255385E+02  0.18429578184E+02  0.13202754679E+03  0.12509000000E+03 0.  0.
         25    1    3    3    0    0 -0.18474342745E+01 -0.11037078784E+03 -0.29694774356E+02  0.16945327245E+03  0.12509000000E+03 0.  0.
         25    1    1    2    0    0 -0.92066565849E+01  0.14672904322E+03 -0.39167682956E+02  0.19696646958E+03  0.12509000000E+03 0.  0.
<mgrwt>
<rscale>  2 0.49588933E+03</rscale>
<asrwt>0</asrwt>
<pdfrwt beam="1">  1       21 0.32942236E-01 0.49588933E+03</pdfrwt>
<pdfrwt beam="2">  1       21 0.40358836E-01 0.49588933E+03</pdfrwt>
<totfact> 0.47848826E+04</totfact>
</mgrwt>
</event>
<event>
 6    0  0.1539497E-004  0.3944669E+03  0.7546771E-02  0.1045713E+00
         21   -1    0    0  502  501  0.00000000000E+00  0.00000000000E+00  0.29473416943E+03  0.29473416943E+03  0.00000000000E+00 0.  1.
         21   -1    0    0  501  502 -0.00000000000E+00 -0.00000000000E+00 -0.13198687139E+03  0.13198687139E+03  0.00000000000E+00 0.  1.
      99925    2    1    2    0    0  0.50652014343E+01 -0.19615454026E+02  0.13741357114E+03  0.29749361293E+03  0.26307705696E+03 0.  0.
         25    1    3    3    0    0  0.15479913013E+02 -0.21045619247E+01  0.25931440120E+02  0.12870122212E+03  0.12509000000E+03 0.  0.
         25    1    3    3    0    0 -0.10414711578E+02 -0.17510892102E+02  0.11148213102E+03  0.16879239081E+03  0.12509000000E+03 0.  0.
         25    1    1    2    0    0 -0.50652014343E+01  0.19615454026E+02  0.25333726908E+02  0.12922742790E+03  0.12509000000E+03 0.  0.
<mgrwt>
<rscale>  2 0.39446694E+03</rscale>
<asrwt>0</asrwt>
<pdfrwt beam="1">  1       21 0.43343260E-01 0.39446694E+03</pdfrwt>
<pdfrwt beam="2">  1       21 0.19409834E-01 0.39446694E+03</pdfrwt>
<totfact> 0.11813226E+05</totfact>
</mgrwt>
</event>
<event>
 6    0  0.1539497E-004  0.4106237E+03  0.7546771E-02  0.1040162E+00
         21   -1    0    0  502  501  0.00000000000E+00  0.00000000000E+00  0.96481628316E+02  0.96481628316E+02  0.00000000000E+00 0.  1.
         21   -1    0    0  501  502 -0.00000000000E+00 -0.00000000000E+00 -0.43690136038E+03  0.43690136038E+03  0.00000000000E+00 0.  1.
      99925    2    1    2    0    0 -0.56392277028E+02  0.26030285647E+02 -0.23911531654E+03  0.36084963719E+03  0.26301836699E+03 0.  0.
         25    1    3    3    0    0 -0.19993972298E+02  0.55261857628E+00 -0.16752728521E+03  0.21003086370E+03  0.12509000000E+03 0.  0.
         25    1    1    2    0    0  0.56392277028E+02 -0.26030285647E+02 -0.10130441552E+03  0.17253335151E+03  0.12509000000E+03 0.  0.
         25    1    3    3    0    0 -0.36398304730E+02  0.25477667071E+02 -0.71588031335E+02  0.15081877349E+03  0.12509000000E+03 0.  0.
<mgrwt>
<rscale>  2 0.41062369E+03</rscale>
<asrwt>0</asrwt>
<pdfrwt beam="1">  1       21 0.14188475E-01 0.41062369E+03</pdfrwt>
<pdfrwt beam="2">  1       21 0.64250199E-01 0.41062369E+03</pdfrwt>
<totfact> 0.90960125E+04</totfact>
</mgrwt>
</event>
<event>
 6    0  0.1539497E-004  0.4459665E+03  0.7546771E-02  0.1028932E+00
         21   -1    0    0  502  501  0.00000000000E+00  0.00000000000E+00  0.24493701672E+03  0.24493701672E+03  0.00000000000E+00 0.  1.
         21   -1    0    0  501  502 -0.00000000000E+00 -0.00000000000E+00 -0.20299724976E+03  0.20299724976E+03  0.00000000000E+00 0.  1.
      99925    2    1    2    0    0  0.85081133241E+02  0.43804531438E+02  0.68940389785E+02  0.28814009280E+03  0.26289598614E+03 0.  0.
         25    1    3    3    0    0  0.60569215186E+02  0.34863357782E+02  0.71916311326E+02  0.16032325932E+03  0.12509000000E+03 0.  0.
         25    1    1    2    0    0 -0.85081133241E+02 -0.43804531438E+02 -0.27000622823E+02  0.15979417368E+03  0.12509000000E+03 0.  0.
         25    1    3    3    0    0  0.24511918055E+02  0.89411736558E+01 -0.29759215408E+01  0.12781683348E+03  0.12509000000E+03 0.  0.
<mgrwt>
<rscale>  2 0.44596655E+03</rscale>
<asrwt>0</asrwt>
<pdfrwt beam="1">  1       21 0.36020149E-01 0.44596655E+03</pdfrwt>
<pdfrwt beam="2">  1       21 0.29852537E-01 0.44596655E+03</pdfrwt>
<totfact> 0.74277418E+04</totfact>
</mgrwt>
</event>
<event>
 6    0  0.1539497E-004  0.3944338E+03  0.7546771E-02  0.1045724E+00
         21   -1    0    0  502  501  0.00000000000E+00  0.00000000000E+00  0.35762009581E+02  0.35762009581E+02  0.00000000000E+00 0. -1.
         21   -1    0    0  501  502 -0.00000000000E+00 -0.00000000000E+00 -0.10875926472E+04  0.10875926472E+04  0.00000000000E+00 0. -1.
      99925    2    1    2    0    0  0.22191742719E+01  0.29162723047E+02 -0.74927761650E+03  0.79465840210E+03  0.26307725157E+03 0.  0.
         25    1    1    2    0    0 -0.22191742719E+01 -0.29162723047E+02 -0.30255302107E+03  0.32869625463E+03  0.12509000000E+03 0.  0.
         25    1    3    3    0    0  0.29193046450E+02 -0.12761747653E+02 -0.33304057451E+03  0.35718150643E+03  0.12509000000E+03 0.  0.
         25    1    3    3    0    0 -0.26973872178E+02  0.41924470700E+02 -0.41623704199E+03  0.43747689568E+03  0.12509000000E+03 0.  0.
<mgrwt>
<rscale>  2 0.39443376E+03</rscale>
<asrwt>0</asrwt>
<pdfrwt beam="1">  1       21 0.52591188E-02 0.39443376E+03</pdfrwt>
<pdfrwt beam="2">  1       21 0.15994010E+00 0.39443376E+03</pdfrwt>
<totfact> 0.57344610E+04</totfact>
</mgrwt>
</event>
<event>
 6    0  0.1539497E-004  0.4526896E+03  0.7546771E-02  0.1026923E+00
         21   -1    0    0  502  501  0.00000000000E+00  0.00000000000E+00  0.19325900974E+03  0.19325900974E+03  0.00000000000E+00 0. -1.
         21   -1    0    0  501  502 -0.00000000000E+00 -0.00000000000E+00 -0.26509487447E+03  0.26509487447E+03  0.00000000000E+00 0. -1.
      99925    2    1    2    0    0 -0.69244442178E+02  0.84348176339E+02 -0.65498285445E+02  0.29223019343E+03  0.26305712865E+03 0.  0.
         25    1    3    3    0    0 -0.43239818523E+00  0.41966008307E+02 -0.66845983292E+01  0.13211178894E+03  0.12509000000E+03 0.  0.
         25    1    3    3    0    0 -0.68812043993E+02  0.42382168031E+02 -0.58813687116E+02  0.16011840449E+03  0.12509000000E+03 0.  0.
         25    1    1    2    0    0  0.69244442178E+02 -0.84348176339E+02 -0.63375792863E+01  0.16612369077E+03  0.12509000000E+03 0.  0.
<mgrwt>
<rscale>  2 0.45268962E+03</rscale>
<asrwt>0</asrwt>
<pdfrwt beam="1">  1       21 0.28420443E-01 0.45268962E+03</pdfrwt>
<pdfrwt beam="2">  1       21 0.38984540E-01 0.45268962E+03</pdfrwt>
<totfact> 0.69573703E+04</totfact>
</mgrwt>
</event>
<event>
 6    0  0.1539497E-004  0.4336826E+03  0.7546771E-02  0.1032703E+00
         21   -1    0    0  502  501  0.00000000000E+00  0.00000000000E+00  0.36402848640E+03  0.36402848640E+03  0.00000000000E+00 0. -1.
         21   -1    0    0  501  502 -0.00000000000E+00 -0.00000000000E+00 -0.12916614685E+03  0.12916614685E+03  0.00000000000E+00 0. -1.
      99925    2    1    2    0    0  0.61756785084E+01  0.48196103182E+02  0.23943141309E+03  0.35892107703E+03  0.26293713050E+03 0.  0.
         25    1    3    3    0    0  0.19149638406E+02 -0.48361664960E+01  0.14727798734E+03  0.19423802618E+03  0.12509000000E+03 0.  0.
         25    1    3    3    0    0 -0.12973959898E+02  0.53032269678E+02  0.92153425749E+02  0.16468305086E+03  0.12509000000E+03 0.  0.
         25    1    1    2    0    0 -0.61756785084E+01 -0.48196103182E+02 -0.45690735366E+01  0.13427355622E+03  0.12509000000E+03 0.  0.
<mgrwt>
<rscale>  2 0.43368263E+03</rscale>
<asrwt>0</asrwt>
<pdfrwt beam="1">  1       21 0.53533601E-01 0.43368263E+03</pdfrwt>
<pdfrwt beam="2">  1       21 0.18995022E-01 0.43368263E+03</pdfrwt>
<totfact> 0.78162427E+04</totfact>
</mgrwt>
</event>
<event>
 6    0  0.1539497E-004  0.4037636E+03  0.7546771E-02  0.1042484E+00
         21   -1    0    0  502  501  0.00000000000E+00  0.00000000000E+00  0.13012915987E+03  0.13012915987E+03  0.00000000000E+00 0.  1.
         21   -1    0    0  501  502 -0.00000000000E+00 -0.00000000000E+00 -0.31319857053E+03  0.31319857053E+03  0.00000000000E+00 0.  1.
      99925    2    1    2    0    0 -0.50388671836E+02 -0.15337367091E+02 -0.12207807421E+03  0.29452684230E+03  0.26280934449E+03 0.  0.
         25    1    1    2    0    0  0.50388671836E+02  0.15337367091E+02 -0.60991336443E+02  0.14880088810E+03  0.12509000000E+03 0.  0.
         25    1    3    3    0    0 -0.92244425851E+01  0.29621392374E+02 -0.57945568695E+02  0.14130716280E+03  0.12509000000E+03 0.  0.
         25    1    3    3    0    0 -0.41164229251E+02 -0.44958759465E+02 -0.64132505514E+02  0.15321967950E+03  0.12509000000E+03 0.  0.
<mgrwt>
<rscale>  2 0.40376363E+03</rscale>
<asrwt>0</asrwt>
<pdfrwt beam="1">  1       21 0.19136641E-01 0.40376363E+03</pdfrwt>
<pdfrwt beam="2">  1       21 0.46058613E-01 0.40376363E+03</pdfrwt>
<totfact> 0.10668973E+05</totfact>
</mgrwt>
</event>
<event>
 6    0  0.1539497E-004  0.4353047E+03  0.7546771E-02  0.1032197E+00
         21   -1    0    0  502  501  0.00000000000E+00  0.00000000000E+00  0.88003469366E+03  0.88003469366E+03  0.00000000000E+00 0.  1.
         21   -1    0    0  501  502 -0.00000000000E+00 -0.00000000000E+00 -0.53830322367E+02  0.53830322367E+02  0.00000000000E+00 0.  1.
      99925    2    1    2    0    0 -0.23390437346E+02  0.74637634615E+02  0.63985382940E+03  0.69618472315E+03  0.26294934243E+03 0.  0.
         25    1    3    3    0    0 -0.22748739602E+02  0.31079660166E+02  0.22061939195E+03  0.25652265911E+03  0.12509000000E+03 0.  0.
         25    1    1    2    0    0  0.23390437346E+02 -0.74637634615E+02  0.18635054189E+03  0.23768029288E+03  0.12509000000E+03 0.  0.
         25    1    3    3    0    0 -0.64169774429E+00  0.43557974449E+02  0.41923443745E+03  0.43966206404E+03  0.12509000000E+03 0.  0.
<mgrwt>
<rscale>  2 0.43530473E+03</rscale>
<asrwt>0</asrwt>
<pdfrwt beam="1">  1       21 0.12941686E+00 0.43530473E+03</pdfrwt>
<pdfrwt beam="2">  1       21 0.79162244E-02 0.43530473E+03</pdfrwt>
<totfact> 0.48911892E+04</totfact>
</mgrwt>
</event>
<event>
 6    0  0.1539497E-004  0.4685312E+03  0.7546771E-02  0.1022336E+00
         21   -1    0    0  502  501  0.00000000000E+00  0.00000000000E+00  0.29494955580E+02  0.29494955580E+02  0.00000000000E+00 0.  1.
         21   -1    0    0  501  502 -0.00000000000E+00 -0.00000000000E+00 -0.18606695088E+04  0.18606695088E+04  0.00000000000E+00 0.  1.
      99925    2    1    2    0    0  0.16613725286E+02  0.11447555501E+03 -0.13347798782E+04  0.13653446381E+04  0.26296005207E+03 0.  0.
         25    1    1    2    0    0 -0.16613725286E+02 -0.11447555501E+03 -0.49639467501E+03  0.52481982627E+03  0.12509000000E+03 0.  0.
         25    1    3    3    0    0  0.47793202283E+01  0.29927830210E+02 -0.46527541262E+03  0.48274966040E+03  0.12509000000E+03 0.  0.
         25    1    3    3    0    0  0.11834405058E+02  0.84547724803E+02 -0.86950446556E+03  0.88259497769E+03  0.12509000000E+03 0.  0.
<mgrwt>
<rscale>  2 0.46853117E+03</rscale>
<asrwt>0</asrwt>
<pdfrwt beam="1">  1       21 0.43374927E-02 0.46853117E+03</pdfrwt>
<pdfrwt beam="2">  1       21 0.27362792E+00 0.46853117E+03</pdfrwt>
<totfact> 0.14052242E+04</totfact>
</mgrwt>
</event>
<event>
 6    0  0.1539497E-004  0.4179964E+03  0.7546771E-02  0.1037720E+00
         21   -1    0    0  502  501  0.00000000000E+00  0.00000000000E+00  0.15771258667E+03  0.15771258667E+03  0.00000000000E+00 0.  1.
         21   -1    0    0  501  502 -0.00000000000E+00 -0.00000000000E+00 -0.27696113596E+03  0.27696113596E+03  0.00000000000E+00 0.  1.
      99925    2    1    2    0    0  0.63427899131E+02  0.10014923256E+02 -0.41414700947E+02  0.27395965005E+03  0.26308803721E+03 0.  0.
         25    1    3    3    0    0  0.55932548121E+02 -0.13624414530E+02 -0.49127132337E+02  0.14620211299E+03  0.12509000000E+03 0.  0.
         25    1    1    2    0    0 -0.63427899131E+02 -0.10014923256E+02 -0.77833848342E+02  0.16071407258E+03  0.12509000000E+03 0.  0.
         25    1    3    3    0    0  0.74953510099E+01  0.23639337786E+02  0.77124313898E+01  0.12775753706E+03  0.12509000000E+03 0.  0.
<mgrwt>
<rscale>  2 0.41799645E+03</rscale>
<asrwt>0</asrwt>
<pdfrwt beam="1">  1       21 0.23193028E-01 0.41799645E+03</pdfrwt>
<pdfrwt beam="2">  1       21 0.40729578E-01 0.41799645E+03</pdfrwt>
<totfact> 0.95169711E+04</totfact>
</mgrwt>
</event>
<event>
 6    0  0.1539497E-004  0.4111552E+03  0.7546771E-02  0.1039984E+00
         21   -1    0    0  502  501  0.00000000000E+00  0.00000000000E+00  0.26820828310E+03  0.26820828310E+03  0.00000000000E+00 0. -1.
         21   -1    0    0  501  502 -0.00000000000E+00 -0.00000000000E+00 -0.15757211410E+03  0.15757211410E+03  0.00000000000E+00 0. -1.
      99925    2    1    2    0    0 -0.23743056371E+02 -0.56409912193E+02  0.53093064323E+02  0.27510017980E+03  0.26289812576E+03 0.  0.
         25    1    1    2    0    0  0.23743056371E+02  0.56409912193E+02  0.57543104684E+02  0.15068021740E+03  0.12509000000E+03 0.  0.
         25    1    3    3    0    0 -0.49792510056E+02 -0.42229664441E+02  0.33887535572E+02  0.14511551186E+03  0.12509000000E+03 0.  0.
         25    1    3    3    0    0  0.26049453684E+02 -0.14180247751E+02  0.19205528751E+02  0.12998466793E+03  0.12509000000E+03 0.  0.
<mgrwt>
<rscale>  2 0.41115518E+03</rscale>
<asrwt>0</asrwt>
<pdfrwt beam="1">  1       21 0.39442394E-01 0.41115518E+03</pdfrwt>
<pdfrwt beam="2">  1       21 0.23172370E-01 0.41115518E+03</pdfrwt>
<totfact> 0.10198540E+05</totfact>
</mgrwt>
</event>
<event>
 6    0  0.1539497E-004  0.4146399E+03  0.7546771E-02  0.1038825E+00
         21   -1    0    0  502  501  0.00000000000E+00  0.00000000000E+00  0.51323578498E+03  0.51323578498E+03  0.00000000000E+00 0.  1.
         21   -1    0    0  501  502 -0.00000000000E+00 -0.00000000000E+00 -0.83746227470E+02  0.83746227470E+02  0.00000000000E+00 0.  1.
      99925    2    1    2    0    0 -0.43864764607E+02  0.46668482085E+02  0.24549743374E+03  0.36545949842E+03  0.26303914199E+03 0.  0.
         25    1    3    3    0    0 -0.61109402136E+02  0.15595510577E+02  0.11519846359E+03  0.18137191925E+03  0.12509000000E+03 0.  0.
         25    1    3    3    0    0  0.17244637529E+02  0.31072971508E+02  0.13029897015E+03  0.18408757917E+03  0.12509000000E+03 0.  0.
         25    1    1    2    0    0  0.43864764607E+02 -0.46668482085E+02  0.18399212377E+03  0.23152251403E+03  0.12509000000E+03 0.  0.
<mgrwt>
<rscale>  2 0.41463990E+03</rscale>
<asrwt>0</asrwt>
<pdfrwt beam="1">  1       21 0.75475850E-01 0.41463990E+03</pdfrwt>
<pdfrwt beam="2">  1       21 0.12315622E-01 0.41463990E+03</pdfrwt>
<totfact> 0.82060885E+04</totfact>
</mgrwt>
</event>
<event>
 6    0  0.1539497E-004  0.3917152E+03  0.7546771E-02  0.1046687E+00
         21   -1    0    0  502  501  0.00000000000E+00  0.00000000000E+00  0.65866542833E+02  0.65866542833E+02  0.00000000000E+00 0.  1.
         21   -1    0    0  501  502 -0.00000000000E+00 -0.00000000000E+00 -0.58239270178E+03  0.58239270178E+03  0.00000000000E+00 0.  1.
      99925    2    1    2    0    0  0.18599086162E+02 -0.10633872034E+02 -0.32705435938E+03  0.42021083710E+03  0.26297069871E+03 0.  0.
         25    1    1    2    0    0 -0.18599086162E+02  0.10633872034E+02 -0.18947179956E+03  0.22804840751E+03  0.12509000000E+03 0.  0.
         25    1    3    3    0    0 -0.28651107508E+02 -0.12000081916E+02 -0.18080116408E+03  0.22203931399E+03  0.12509000000E+03 0.  0.
         25    1    3    3    0    0  0.47250193670E+02  0.13662098820E+01 -0.14625319531E+03  0.19817152310E+03  0.12509000000E+03 0.  0.
<mgrwt>
<rscale>  2 0.39171517E+03</rscale>
<asrwt>0</asrwt>
<pdfrwt beam="1">  1       21 0.96862561E-02 0.39171517E+03</pdfrwt>
<pdfrwt beam="2">  1       21 0.85645987E-01 0.39171517E+03</pdfrwt>
<totfact> 0.95076607E+04</totfact>
</mgrwt>
</event>
<event>
 6    0  0.1539497E-004  0.3907969E+03  0.7546771E-02  0.1047014E+00
         21   -1    0    0  502  501  0.00000000000E+00  0.00000000000E+00  0.16424214389E+03  0.16424214389E+03  0.00000000000E+00 0. -1.
         21   -1    0    0  501  502 -0.00000000000E+00 -0.00000000000E+00 -0.23246502042E+03  0.23246502042E+03  0.00000000000E+00 0. -1.
      99925    2    1    2    0    0  0.15936166938E+02  0.13473295687E+02 -0.50826572560E+02  0.26870079491E+03  0.26302335561E+03 0.  0.
         25    1    3    3    0    0 -0.14114767205E+02 -0.20876603000E+02 -0.45384342258E+02  0.13543376916E+03  0.12509000000E+03 0.  0.
         25    1    1    2    0    0 -0.15936166938E+02 -0.13473295687E+02 -0.17396303974E+02  0.12800636939E+03  0.12509000000E+03 0.  0.
         25    1    3    3    0    0  0.30050934143E+02  0.34349898687E+02 -0.54422303013E+01  0.13326702575E+03  0.12509000000E+03 0.  0.
<mgrwt>
<rscale>  2 0.39079690E+03</rscale>
<asrwt>0</asrwt>
<pdfrwt beam="1">  1       21 0.24153256E-01 0.39079690E+03</pdfrwt>
<pdfrwt beam="2">  1       21 0.34186032E-01 0.39079690E+03</pdfrwt>
<totfact> 0.12638798E+05</totfact>
</mgrwt>
</event>
<event>
 6    0  0.1712626E-004  0.4133008E+03  0.7546771E-02  0.1039269E+00
         21   -1    0    0  502  501  0.00000000000E+00  0.00000000000E+00  0.31346602959E+03  0.31346602959E+03  0.00000000000E+00 0. -1.
         21   -1    0    0  501  502 -0.00000000000E+00 -0.00000000000E+00 -0.13623287685E+03  0.13623287685E+03  0.00000000000E+00 0. -1.
      99925    2    1    2    0    0 -0.46886559971E+02 -0.47937801659E+02  0.12101238625E+03  0.29704025121E+03  0.26285458124E+03 0.  0.
         25    1    3    3    0    0 -0.28246206307E+02  0.15997645518E+02  0.50456311662E+02  0.13873399122E+03  0.12509000000E+03 0.  0.
         25    1    1    2    0    0  0.46886559971E+02  0.47937801659E+02  0.56220766487E+02  0.15265865524E+03  0.12509000000E+03 0.  0.
         25    1    3    3    0    0 -0.18640353663E+02 -0.63935447177E+02  0.70556074584E+02  0.15830625999E+03  0.12509000000E+03 0.  0.
<mgrwt>
<rscale>  2 0.41330076E+03</rscale>
<asrwt>0</asrwt>
<pdfrwt beam="1">  1       21 0.46097946E-01 0.41330076E+03</pdfrwt>
<pdfrwt beam="2">  1       21 0.20034247E-01 0.41330076E+03</pdfrwt>
<totfact> 0.97445758E+04</totfact>
</mgrwt>
</event>
<event>
 6    0  0.1539497E-004  0.4258737E+03  0.7546771E-02  0.1035171E+00
         21   -1    0    0  502  501  0.00000000000E+00  0.00000000000E+00  0.90843724527E+02  0.90843724527E+02  0.00000000000E+00 0. -1.
         21   -1    0    0  501  502 -0.00000000000E+00 -0.00000000000E+00 -0.49912209321E+03  0.49912209321E+03  0.00000000000E+00 0. -1.
      99925    2    1    2    0    0 -0.33217056297E+02  0.31096387700E+02 -0.36051092828E+03  0.44854589474E+03  0.26297325363E+03 0.  0.
         25    1    3    3    0    0  0.14767570490E+02  0.36861757449E+02 -0.20237055350E+03  0.24120161551E+03  0.12509000000E+03 0.  0.
         25    1    1    2    0    0  0.33217056297E+02 -0.31096387700E+02 -0.47767440408E+02  0.14141992300E+03  0.12509000000E+03 0.  0.
         25    1    3    3    0    0 -0.47984626787E+02 -0.57653697488E+01 -0.15814037478E+03  0.20734427924E+03  0.12509000000E+03 0.  0.
<mgrwt>
<rscale>  2 0.42587374E+03</rscale>
<asrwt>0</asrwt>
<pdfrwt beam="1">  1       21 0.13359371E-01 0.42587374E+03</pdfrwt>
<pdfrwt beam="2">  1       21 0.73400310E-01 0.42587374E+03</pdfrwt>
<totfact> 0.75163588E+04</totfact>
</mgrwt>
</event>
<event>
 6    0  0.1539497E-004  0.4022616E+03  0.7546771E-02  0.1042999E+00
         21   -1    0    0  502  501  0.00000000000E+00  0.00000000000E+00  0.19516341194E+03  0.19516341194E+03  0.00000000000E+00 0.  1.
         21   -1    0    0  501  502 -0.00000000000E+00 -0.00000000000E+00 -0.20728065288E+03  0.20728065288E+03  0.00000000000E+00 0.  1.
      99925    2    1    2    0    0  0.35569441899E+02  0.29911842257E+02  0.89777677099E+01  0.26734258076E+03  0.26311889265E+03 0.  0.
         25    1    3    3    0    0  0.49718098958E+02  0.17849878047E+02  0.30214716316E+02  0.13910767302E+03  0.12509000000E+03 0.  0.
         25    1    3    3    0    0 -0.14148657059E+02  0.12061964210E+02 -0.21236948606E+02  0.12823490774E+03  0.12509000000E+03 0.  0.
         25    1    1    2    0    0 -0.35569441899E+02 -0.29911842257E+02 -0.21095008649E+02  0.13510148406E+03  0.12509000000E+03 0.  0.
<mgrwt>
<rscale>  2 0.40226160E+03</rscale>
<asrwt>0</asrwt>
<pdfrwt beam="1">  1       21 0.28700502E-01 0.40226160E+03</pdfrwt>
<pdfrwt beam="2">  1       21 0.30482449E-01 0.40226160E+03</pdfrwt>
<totfact> 0.11324488E+05</totfact>
</mgrwt>
</event>
<event>
 6    0  0.1539497E-004  0.4338099E+03  0.7546771E-02  0.1032663E+00
         21   -1    0    0  502  501  0.00000000000E+00  0.00000000000E+00  0.20799144370E+04  0.20799144370E+04  0.00000000000E+00 0. -1.
         21   -1    0    0  501  502 -0.00000000000E+00 -0.00000000000E+00 -0.22620042724E+02  0.22620042724E+02  0.00000000000E+00 0. -1.
      99925    2    1    2    0    0  0.74034344468E+02 -0.44992133551E+02  0.14697781536E+04  0.14956339793E+04  0.26299772438E+03 0.  0.
         25    1    1    2    0    0 -0.74034344468E+02  0.44992133551E+02  0.58751624068E+03  0.60690050041E+03  0.12509000000E+03 0.  0.
         25    1    3    3    0    0  0.24583784311E+02  0.16101289996E+02  0.73581255294E+03  0.74694794675E+03  0.12509000000E+03 0.  0.
         25    1    3    3    0    0  0.49450560156E+02 -0.61093423547E+02  0.73396560063E+03  0.74868603253E+03  0.12509000000E+03 0.  0.
<mgrwt>
<rscale>  2 0.43380988E+03</rscale>
<asrwt>0</asrwt>
<pdfrwt beam="1">  1       21 0.30586964E+00 0.43380988E+03</pdfrwt>
<pdfrwt beam="2">  1       21 0.33264783E-02 0.43380988E+03</pdfrwt>
<totfact> 0.14322678E+04</totfact>
</mgrwt>
</event>
<event>
 6    0  0.1539497E-004  0.4358043E+03  0.7546771E-02  0.1032042E+00
         21   -1    0    0  502  501  0.00000000000E+00  0.00000000000E+00  0.62313022296E+03  0.62313022296E+03  0.00000000000E+00 0.  1.
         21   -1    0    0  501  502 -0.00000000000E+00 -0.00000000000E+00 -0.76198113830E+02  0.76198113830E+02  0.00000000000E+00 0.  1.
      99925    2    1    2    0    0 -0.33490381602E+02  0.85294989372E+02  0.31764209094E+03  0.42252829811E+03  0.26312891117E+03 0.  0.
         25    1    3    3    0    0 -0.34924336420E+02  0.31019655431E+02  0.20973979032E+03  0.24863671499E+03  0.12509000000E+03 0.  0.
         25    1    1    2    0    0  0.33490381602E+02 -0.85294989372E+02  0.22929001819E+03  0.27680003868E+03  0.12509000000E+03 0.  0.
         25    1    3    3    0    0  0.14339548175E+01  0.54275333941E+02  0.10790230063E+03  0.17389158312E+03  0.12509000000E+03 0.  0.
<mgrwt>
<rscale>  2 0.43580430E+03</rscale>
<asrwt>0</asrwt>
<pdfrwt beam="1">  1       21 0.91636795E-01 0.43580430E+03</pdfrwt>
<pdfrwt beam="2">  1       21 0.11205605E-01 0.43580430E+03</pdfrwt>
<totfact> 0.61752647E+04</totfact>
</mgrwt>
</event>
<event>
 6    0  0.1539497E-004  0.4219334E+03  0.7546771E-02  0.1036439E+00
         21   -1    0    0  502  501  0.00000000000E+00  0.00000000000E+00  0.17291740957E+03  0.17291740957E+03  0.00000000000E+00 0. -1.
         21   -1    0    0  501  502 -0.00000000000E+00 -0.00000000000E+00 -0.25738845626E+03  0.25738845626E+03  0.00000000000E+00 0. -1.
      99925    2    1    2    0    0  0.15500111413E+02 -0.48364265582E+02 -0.11552756010E+03  0.29177294280E+03  0.26306933947E+03 0.  0.
         25    1    1    2    0    0 -0.15500111413E+02  0.48364265582E+02  0.31056513411E+02  0.13853292303E+03  0.12509000000E+03 0.  0.
         25    1    3    3    0    0  0.38845078544E+02 -0.51077006048E+02 -0.63693561690E+02  0.15434435064E+03  0.12509000000E+03 0.  0.
         25    1    3    3    0    0 -0.23344967130E+02  0.27127404660E+01 -0.51833998410E+02  0.13742859216E+03  0.12509000000E+03 0.  0.
<mgrwt>
<rscale>  2 0.42193338E+03</rscale>
<asrwt>0</asrwt>
<pdfrwt beam="1">  1       21 0.25429031E-01 0.42193338E+03</pdfrwt>
<pdfrwt beam="2">  1       21 0.37851243E-01 0.42193338E+03</pdfrwt>
<totfact> 0.92474458E+04</totfact>
</mgrwt>
</event>
<event>
 6    0  0.1539497E-004  0.4228016E+03  0.7546771E-02  0.1036158E+00
         21   -1    0    0  502  501  0.00000000000E+00  0.00000000000E+00  0.77352497705E+02  0.77352497705E+02  0.00000000000E+00 0.  1.
         21   -1    0    0  501  502 -0.00000000000E+00 -0.00000000000E+00 -0.57774856761E+03  0.57774856761E+03  0.00000000000E+00 0.  1.
      99925    2    1    2    0    0 -0.13977323483E+02  0.77731875116E+02 -0.33691532026E+03  0.43462187450E+03  0.26295746953E+03 0.  0.
         25    1    1    2    0    0  0.13977323483E+02 -0.77731875116E+02 -0.16348074964E+03  0.22047919082E+03  0.12509000000E+03 0.  0.
         25    1    3    3    0    0 -0.74288173463E+01  0.56115106000E+02 -0.23297220928E+03  0.27042124703E+03  0.12509000000E+03 0.  0.
         25    1    3    3    0    0 -0.65485061363E+01  0.21616769116E+02 -0.10394311099E+03  0.16420062747E+03  0.12509000000E+03 0.  0.
<mgrwt>
<rscale>  2 0.42280158E+03</rscale>
<asrwt>0</asrwt>
<pdfrwt beam="1">  1       21 0.11375367E-01 0.42280158E+03</pdfrwt>
<pdfrwt beam="2">  1       21 0.84963025E-01 0.42280158E+03</pdfrwt>
<totfact> 0.72016228E+04</totfact>
</mgrwt>
</event>
<event>
 6    0  0.1539497E-004  0.4009556E+03  0.7546771E-02  0.1043449E+00
         21   -1    0    0  502  501  0.00000000000E+00  0.00000000000E+00  0.23453350514E+03  0.23453350514E+03  0.00000000000E+00 0. -1.
         21   -1    0    0  501  502 -0.00000000000E+00 -0.00000000000E+00 -0.17136718860E+03  0.17136718860E+03  0.00000000000E+00 0. -1.
      99925    2    1    2    0    0 -0.10915607387E+02  0.13474409128E+02  0.86639683698E+02  0.27745141484E+03  0.26300597449E+03 0.  0.
         25    1    1    2    0    0  0.10915607387E+02 -0.13474409128E+02 -0.23473367156E+02  0.12844927891E+03  0.12509000000E+03 0.  0.
         25    1    3    3    0    0 -0.18255546445E+02  0.29783062577E+01  0.31032813869E+01  0.12648823558E+03  0.12509000000E+03 0.  0.
         25    1    3    3    0    0  0.73399390578E+01  0.10496102871E+02  0.83536402311E+02  0.15096317926E+03  0.12509000000E+03 0.  0.
<mgrwt>
<rscale>  2 0.40095560E+03</rscale>
<asrwt>0</asrwt>
<pdfrwt beam="1">  1       21 0.34490221E-01 0.40095560E+03</pdfrwt>
<pdfrwt beam="2">  1       21 0.25201057E-01 0.40095560E+03</pdfrwt>
<totfact> 0.11411454E+05</totfact>
</mgrwt>
</event>
<event>
 6    0  0.1539497E-004  0.4283326E+03  0.7546771E-02  0.1034388E+00
         21   -1    0    0  502  501  0.00000000000E+00  0.00000000000E+00  0.84287160799E+03  0.84287160799E+03  0.00000000000E+00 0. -1.
         21   -1    0    0  501  502 -0.00000000000E+00 -0.00000000000E+00 -0.54417778915E+02  0.54417778915E+02  0.00000000000E+00 0. -1.
      99925    2    1    2    0    0 -0.53244735970E+01  0.64823367706E+02  0.39485871346E+03  0.47920441689E+03  0.26361534581E+03 0.  0.
         25    1    1    2    0    0  0.53244735970E+01 -0.64823367706E+02  0.39359511562E+03  0.41808497002E+03  0.12509000000E+03 0.  0.
         25    1    3    3    0    0  0.22815041537E+02 -0.57600775683E+00  0.19876224956E+03  0.23595507593E+03  0.12509000000E+03 0.  0.
         25    1    3    3    0    0 -0.28139515134E+02  0.65399375463E+02  0.19609646390E+03  0.24324934096E+03  0.12509000000E+03 0.  0.
<mgrwt>
<rscale>  2 0.42833258E+03</rscale>
<asrwt>0</asrwt>
<pdfrwt beam="1">  1       21 0.12395170E+00 0.42833258E+03</pdfrwt>
<pdfrwt beam="2">  1       21 0.80026150E-02 0.42833258E+03</pdfrwt>
<totfact> 0.53714361E+04</totfact>
</mgrwt>
</event>
<event>
 6    0  0.1539497E-004  0.4613743E+03  0.7546771E-02  0.1024383E+00
         21   -1    0    0  502  501  0.00000000000E+00  0.00000000000E+00  0.12756318622E+04  0.12756318622E+04  0.00000000000E+00 0. -1.
         21   -1    0    0  501  502 -0.00000000000E+00 -0.00000000000E+00 -0.41717807492E+02  0.41717807492E+02  0.00000000000E+00 0. -1.
      99925    2    1    2    0    0 -0.10480090653E+03  0.54580269203E+02  0.73401601146E+03  0.78866469966E+03  0.26315445581E+03 0.  0.
         25    1    3    3    0    0 -0.95625644973E+02  0.26986299879E+02  0.38923837767E+03  0.42074522826E+03  0.12509000000E+03 0.  0.
         25    1    1    2    0    0  0.10480090653E+03 -0.54580269203E+02  0.49989804324E+03  0.52868497003E+03  0.12509000000E+03 0.  0.
         25    1    3    3    0    0 -0.91752615558E+01  0.27593969324E+02  0.34477763379E+03  0.36791947139E+03  0.12509000000E+03 0.  0.
<mgrwt>
<rscale>  2 0.46137431E+03</rscale>
<asrwt>0</asrwt>
<pdfrwt beam="1">  1       21 0.18759290E+00 0.46137431E+03</pdfrwt>
<pdfrwt beam="2">  1       21 0.61349725E-02 0.46137431E+03</pdfrwt>
<totfact> 0.27239532E+04</totfact>
</mgrwt>
</event>
<event>
 6    0  0.1539497E-004  0.4151120E+03  0.7546771E-02  0.1038669E+00
         21   -1    0    0  502  501  0.00000000000E+00  0.00000000000E+00  0.20918139071E+03  0.20918139071E+03  0.00000000000E+00 0. -1.
         21   -1    0    0  501  502 -0.00000000000E+00 -0.00000000000E+00 -0.20594319466E+03  0.20594319466E+03  0.00000000000E+00 0. -1.
      99925    2    1    2    0    0  0.39202500935E+02  0.40198896475E+02 -0.38657331325E+02  0.27175258437E+03  0.26306328229E+03 0.  0.
         25    1    1    2    0    0 -0.39202500935E+02 -0.40198896475E+02  0.41895527372E+02  0.14337200100E+03  0.12509000000E+03 0.  0.
         25    1    3    3    0    0  0.45659713224E+02 -0.75475629246E+01 -0.33913103259E+02  0.13762042650E+03  0.12509000000E+03 0.  0.
         25    1    3    3    0    0 -0.64572122888E+01  0.47746459400E+02 -0.47442280663E+01  0.13413215787E+03  0.12509000000E+03 0.  0.
<mgrwt>
<rscale>  2 0.41511196E+03</rscale>
<asrwt>0</asrwt>
<pdfrwt beam="1">  1       21 0.30761969E-01 0.41511196E+03</pdfrwt>
<pdfrwt beam="2">  1       21 0.30285764E-01 0.41511196E+03</pdfrwt>
<totfact> 0.99729225E+04</totfact>
</mgrwt>
</event>
<event>
 6    0  0.1539497E-004  0.4231048E+03  0.7546771E-02  0.1036061E+00
         21   -1    0    0  502  501  0.00000000000E+00  0.00000000000E+00  0.26315496472E+03  0.26315496472E+03  0.00000000000E+00 0. -1.
         21   -1    0    0  501  502 -0.00000000000E+00 -0.00000000000E+00 -0.17006869176E+03  0.17006869176E+03  0.00000000000E+00 0. -1.
      99925    2    1    2    0    0 -0.47844811765E+02 -0.25089649477E+02  0.36894964704E+00  0.26841277497E+03  0.26291950312E+03 0.  0.
         25    1    1    2    0    0  0.47844811765E+02  0.25089649477E+02  0.92717323305E+02  0.16481088151E+03  0.12509000000E+03 0.  0.
         25    1    3    3    0    0 -0.48443944058E+02 -0.26427338280E+02  0.29726371892E+02  0.13991563605E+03  0.12509000000E+03 0.  0.
         25    1    3    3    0    0  0.59913229281E+00  0.13376888033E+01 -0.29357422245E+02  0.12849713892E+03  0.12509000000E+03 0.  0.
<mgrwt>
<rscale>  2 0.42310481E+03</rscale>
<asrwt>0</asrwt>
<pdfrwt beam="1">  1       21 0.38699260E-01 0.42310481E+03</pdfrwt>
<pdfrwt beam="2">  1       21 0.25010102E-01 0.42310481E+03</pdfrwt>
<totfact> 0.91260635E+04</totfact>
</mgrwt>
</event>
<event>
 6    0  0.1539497E-004  0.4220687E+03  0.7546771E-02  0.1036395E+00
         21   -1    0    0  502  501  0.00000000000E+00  0.00000000000E+00  0.31746431157E+03  0.31746431157E+03  0.00000000000E+00 0.  1.
         21   -1    0    0  501  502 -0.00000000000E+00 -0.00000000000E+00 -0.14028505149E+03  0.14028505149E+03  0.00000000000E+00 0.  1.
      99925    2    1    2    0    0  0.71695253109E+02  0.26833245717E+01  0.80965586963E+02  0.28439426926E+03  0.26301571164E+03 0.  0.
         25    1    3    3    0    0  0.55750751940E+02 -0.28429964840E+02  0.62517801274E+02  0.15320702601E+03  0.12509000000E+03 0.  0.
         25    1    3    3    0    0  0.15944501168E+02  0.31113289412E+02  0.18447785690E+02  0.13118724325E+03  0.12509000000E+03 0.  0.
         25    1    1    2    0    0 -0.71695253109E+02 -0.26833245717E+01  0.96213673120E+02  0.17335509379E+03  0.12509000000E+03 0.  0.
<mgrwt>
<rscale>  2 0.42206870E+03</rscale>
<asrwt>0</asrwt>
<pdfrwt beam="1">  1       21 0.46685928E-01 0.42206870E+03</pdfrwt>
<pdfrwt beam="2">  1       21 0.20630155E-01 0.42206870E+03</pdfrwt>
<totfact> 0.89577897E+04</totfact>
</mgrwt>
</event>
<event>
 6    0  0.1539497E-004  0.4642492E+03  0.7546771E-02  0.1023556E+00
         21   -1    0    0  502  501  0.00000000000E+00  0.00000000000E+00  0.47166639659E+02  0.47166639659E+02  0.00000000000E+00 0.  1.
         21   -1    0    0  501  502 -0.00000000000E+00 -0.00000000000E+00 -0.11423715705E+04  0.11423715705E+04  0.00000000000E+00 0.  1.
      99925    2    1    2    0    0 -0.43934447946E+02 -0.11083803002E+03 -0.62703144181E+03  0.69048988730E+03  0.26342465874E+03 0.  0.
         25    1    3    3    0    0  0.49043711935E+01 -0.36978270338E+02 -0.35528856950E+03  0.37850881238E+03  0.12509000000E+03 0.  0.
         25    1    3    3    0    0 -0.48838819139E+02 -0.73859759687E+02 -0.27174287231E+03  0.31198107492E+03  0.12509000000E+03 0.  0.
         25    1    1    2    0    0  0.43934447946E+02  0.11083803002E+03 -0.46817348903E+03  0.49904832286E+03  0.12509000000E+03 0.  0.
<mgrwt>
<rscale>  2 0.46424919E+03</rscale>
<asrwt>0</asrwt>
<pdfrwt beam="1">  1       21 0.69362712E-02 0.46424919E+03</pdfrwt>
<pdfrwt beam="2">  1       21 0.16799580E+00 0.46424919E+03</pdfrwt>
<totfact> 0.30250031E+04</totfact>
</mgrwt>
</event>
<event>
 6    0  0.1539497E-004  0.4658582E+03  0.7546771E-02  0.1023096E+00
         21   -1    0    0  502  501  0.00000000000E+00  0.00000000000E+00  0.27721095453E+03  0.27721095453E+03  0.00000000000E+00 0. -1.
         21   -1    0    0  501  502 -0.00000000000E+00 -0.00000000000E+00 -0.19572083304E+03  0.19572083304E+03  0.00000000000E+00 0. -1.
      99925    2    1    2    0    0  0.97829180683E+02 -0.27433340030E+02 -0.21241546799E+02  0.28181810279E+03  0.26200592171E+03 0.  0.
         25    1    3    3    0    0  0.43992371919E+02 -0.29294167163E+02  0.24813366473E+02  0.13804596435E+03  0.12509000000E+03 0.  0.
         25    1    1    2    0    0 -0.97829180683E+02  0.27433340030E+02  0.10273166829E+03  0.19111368477E+03  0.12509000000E+03 0.  0.
         25    1    3    3    0    0  0.53836808764E+02  0.18608271332E+01 -0.46054913272E+02  0.14377213844E+03  0.12509000000E+03 0.  0.
<mgrwt>
<rscale>  2 0.46585817E+03</rscale>
<asrwt>0</asrwt>
<pdfrwt beam="1">  1       21 0.40766317E-01 0.46585817E+03</pdfrwt>
<pdfrwt beam="2">  1       21 0.28782475E-01 0.46585817E+03</pdfrwt>
<totfact> 0.61723193E+04</totfact>
</mgrwt>
</event>
<event>
 6    0  0.1539497E-004  0.4404752E+03  0.7546771E-02  0.1030601E+00
         21   -1    0    0  502  501  0.00000000000E+00  0.00000000000E+00  0.44695693457E+03  0.44695693457E+03  0.00000000000E+00 0.  1.
         21   -1    0    0  501  502 -0.00000000000E+00 -0.00000000000E+00 -0.10852184304E+03  0.10852184304E+03  0.00000000000E+00 0.  1.
      99925    2    1    2    0    0  0.26281463416E+02  0.54324547434E+02  0.31468744628E+03  0.41457693046E+03  0.26306647573E+03 0.  0.
         25    1    3    3    0    0  0.45804294607E+02  0.52763912225E+02  0.16823176551E+03  0.22097850318E+03  0.12509000000E+03 0.  0.
         25    1    1    2    0    0 -0.26281463416E+02 -0.54324547434E+02  0.23747645248E+02  0.14090184714E+03  0.12509000000E+03 0.  0.
         25    1    3    3    0    0 -0.19522831191E+02  0.15606352096E+01  0.14645568076E+03  0.19359842729E+03  0.12509000000E+03 0.  0.
<mgrwt>
<rscale>  2 0.44047515E+03</rscale>
<asrwt>0</asrwt>
<pdfrwt beam="1">  1       21 0.65728960E-01 0.44047515E+03</pdfrwt>
<pdfrwt beam="2">  1       21 0.15959095E-01 0.44047515E+03</pdfrwt>
<totfact> 0.69111053E+04</totfact>
</mgrwt>
</event>
<event>
 6    0  0.1539497E-004  0.4409021E+03  0.7546771E-02  0.1030470E+00
         21   -1    0    0  502  501  0.00000000000E+00  0.00000000000E+00  0.19697153627E+03  0.19697153627E+03  0.00000000000E+00 0. -1.
         21   -1    0    0  501  502 -0.00000000000E+00 -0.00000000000E+00 -0.24672936263E+03  0.24672936263E+03  0.00000000000E+00 0. -1.
      99925    2    1    2    0    0 -0.69580884791E+02 -0.64831327274E+02 -0.30472377725E+01  0.27976802327E+03  0.26308983383E+03 0.  0.
         25    1    3    3    0    0 -0.67143674064E+02 -0.11931946631E+02 -0.15742535936E+02  0.14333868932E+03  0.12509000000E+03 0.  0.
         25    1    1    2    0    0  0.69580884791E+02  0.64831327274E+02 -0.46710588588E+02  0.16393287562E+03  0.12509000000E+03 0.  0.
         25    1    3    3    0    0 -0.24372107268E+01 -0.52899380643E+02  0.12695298163E+02  0.13642933396E+03  0.12509000000E+03 0.  0.
<mgrwt>
<rscale>  2 0.44090208E+03</rscale>
<asrwt>0</asrwt>
<pdfrwt beam="1">  1       21 0.28966402E-01 0.44090208E+03</pdfrwt>
<pdfrwt beam="2">  1       21 0.36283730E-01 0.44090208E+03</pdfrwt>
<totfact> 0.77767521E+04</totfact>
</mgrwt>
</event>
<event>
 6    0  0.1539497E-004  0.5699870E+03  0.7546771E-02  0.9969707E-01
         21   -1    0    0  502  501  0.00000000000E+00  0.00000000000E+00  0.17209529872E+04  0.17209529872E+04  0.00000000000E+00 0. -1.
         21   -1    0    0  501  502 -0.00000000000E+00 -0.00000000000E+00 -0.47195541333E+02  0.47195541333E+02  0.00000000000E+00 0. -1.
      99925    2    1    2    0    0  0.11058475732E+03  0.71011718016E+02  0.14527771935E+04  0.14822264540E+04  0.26298675725E+03 0.  0.
         25    1    3    3    0    0  0.20149218761E+02  0.76051660885E+01  0.65436419736E+03  0.66656120533E+03  0.12509000000E+03 0.  0.
         25    1    1    2    0    0 -0.11058475732E+03 -0.71011718016E+02  0.22098025243E+03  0.28592207454E+03  0.12509000000E+03 0.  0.
         25    1    3    3    0    0  0.90435538558E+02  0.63406551928E+02  0.79841299609E+03  0.81566524867E+03  0.12509000000E+03 0.  0.
<mgrwt>
<rscale>  2 0.56998704E+03</rscale>
<asrwt>0</asrwt>
<pdfrwt beam="1">  1       21 0.25308128E+00 0.56998704E+03</pdfrwt>
<pdfrwt beam="2">  1       21 0.69405219E-02 0.56998704E+03</pdfrwt>
<totfact> 0.80004710E+03</totfact>
</mgrwt>
</event>
<event>
 6    0  0.2118474E-004  0.4168002E+03  0.7546771E-02  0.1038113E+00
         21   -1    0    0  502  501  0.00000000000E+00  0.00000000000E+00  0.27097166371E+03  0.27097166371E+03  0.00000000000E+00 0.  1.
         21   -1    0    0  501  502 -0.00000000000E+00 -0.00000000000E+00 -0.16027729453E+03  0.16027729453E+03  0.00000000000E+00 0.  1.
      99925    2    1    2    0    0 -0.23971723430E+02  0.55194585428E+02  0.31426791976E+02  0.27139920791E+03  0.26277138546E+03 0.  0.
         25    1    3    3    0    0  0.22605436324E+02  0.15285004006E+02  0.32436629397E+02  0.13207679632E+03  0.12509000000E+03 0.  0.
         25    1    1    2    0    0  0.23971723430E+02 -0.55194585428E+02  0.79267577203E+02  0.15984975033E+03  0.12509000000E+03 0.  0.
         25    1    3    3    0    0 -0.46577159754E+02  0.39909581421E+02 -0.10098374205E+01  0.13932241159E+03  0.12509000000E+03 0.  0.
<mgrwt>
<rscale>  2 0.41680022E+03</rscale>
<asrwt>0</asrwt>
<pdfrwt beam="1">  1       21 0.39848774E-01 0.41680022E+03</pdfrwt>
<pdfrwt beam="2">  1       21 0.23570190E-01 0.41680022E+03</pdfrwt>
<totfact> 0.96524987E+04</totfact>
</mgrwt>
</event>
<event>
 6    0  0.1539497E-004  0.4171956E+03  0.7546771E-02  0.1037983E+00
         21   -1    0    0  502  501  0.00000000000E+00  0.00000000000E+00  0.27515488792E+03  0.27515488792E+03  0.00000000000E+00 0. -1.
         21   -1    0    0  501  502 -0.00000000000E+00 -0.00000000000E+00 -0.15814016451E+03  0.15814016451E+03  0.00000000000E+00 0. -1.
      99925    2    1    2    0    0  0.26700420294E+02  0.29557990352E+02  0.13924616120E+03  0.30014726926E+03  0.26289218817E+03 0.  0.
         25    1    3    3    0    0  0.23119558480E+02 -0.23074740869E+02  0.79913373715E+02  0.15198885831E+03  0.12509000000E+03 0.  0.
         25    1    3    3    0    0  0.35808618143E+01  0.52632731221E+02  0.59332787481E+02  0.14815841096E+03  0.12509000000E+03 0.  0.
         25    1    1    2    0    0 -0.26700420294E+02 -0.29557990352E+02 -0.22231437782E+02  0.13314778317E+03  0.12509000000E+03 0.  0.
<mgrwt>
<rscale>  2 0.41719559E+03</rscale>
<asrwt>0</asrwt>
<pdfrwt beam="1">  1       21 0.40463954E-01 0.41719559E+03</pdfrwt>
<pdfrwt beam="2">  1       21 0.23255906E-01 0.41719559E+03</pdfrwt>
<totfact> 0.95975293E+04</totfact>
</mgrwt>
</event>
<event>
 6    0  0.1539497E-004  0.4278596E+03  0.7546771E-02  0.1034538E+00
         21   -1    0    0  502  501  0.00000000000E+00  0.00000000000E+00  0.74689766977E+02  0.74689766977E+02  0.00000000000E+00 0. -1.
         21   -1    0    0  501  502 -0.00000000000E+00 -0.00000000000E+00 -0.61274725524E+03  0.61274725524E+03  0.00000000000E+00 0. -1.
      99925    2    1    2    0    0 -0.34557302809E+02  0.65418263353E+02 -0.27918469754E+03  0.39055929279E+03  0.26290437327E+03 0.  0.
         25    1    3    3    0    0 -0.56509185906E+02  0.35971006742E+02 -0.16083366854E+03  0.21448118438E+03  0.12509000000E+03 0.  0.
         25    1    3    3    0    0  0.21951883097E+02  0.29447256611E+02 -0.11835102901E+03  0.17607810841E+03  0.12509000000E+03 0.  0.
         25    1    1    2    0    0  0.34557302809E+02 -0.65418263353E+02 -0.25887279072E+03  0.29687772943E+03  0.12509000000E+03 0.  0.
<mgrwt>
<rscale>  2 0.42785956E+03</rscale>
<asrwt>0</asrwt>
<pdfrwt beam="1">  1       21 0.10983789E-01 0.42785956E+03</pdfrwt>
<pdfrwt beam="2">  1       21 0.90109896E-01 0.42785956E+03</pdfrwt>
<totfact> 0.66749132E+04</totfact>
</mgrwt>
</event>
<event>
 6    0  0.1539497E-004  0.4274286E+03  0.7546771E-02  0.1034675E+00
         21   -1    0    0  502  501  0.00000000000E+00  0.00000000000E+00  0.19914214016E+03  0.19914214016E+03  0.00000000000E+00 0. -1.
         21   -1    0    0  501  502 -0.00000000000E+00 -0.00000000000E+00 -0.22935272504E+03  0.22935272504E+03  0.00000000000E+00 0. -1.
      99925    2    1    2    0    0 -0.23691809169E+02 -0.75125994241E+02 -0.50889002499E+02  0.27922892170E+03  0.26300928369E+03 0.  0.
         25    1    3    3    0    0  0.25814892298E+02 -0.43213408417E+02 -0.39461392898E+02  0.14049383247E+03  0.12509000000E+03 0.  0.
         25    1    1    2    0    0  0.23691809169E+02  0.75125994241E+02  0.20678417620E+02  0.14926594350E+03  0.12509000000E+03 0.  0.
         25    1    3    3    0    0 -0.49506701466E+02 -0.31912585824E+02 -0.11427609601E+02  0.13873508924E+03  0.12509000000E+03 0.  0.
<mgrwt>
<rscale>  2 0.42742856E+03</rscale>
<asrwt>0</asrwt>
<pdfrwt beam="1">  1       21 0.29285609E-01 0.42742856E+03</pdfrwt>
<pdfrwt beam="2">  1       21 0.33728342E-01 0.42742856E+03</pdfrwt>
<totfact> 0.88446378E+04</totfact>
</mgrwt>
</event>
<event>
 6    0  0.1539497E-004  0.4574184E+03  0.7546771E-02  0.1025533E+00
         21   -1    0    0  502  501  0.00000000000E+00  0.00000000000E+00  0.10915891993E+03  0.10915891993E+03  0.00000000000E+00 0.  1.
         21   -1    0    0  501  502 -0.00000000000E+00 -0.00000000000E+00 -0.47919023697E+03  0.47919023697E+03  0.00000000000E+00 0.  1.
      99925    2    1    2    0    0  0.68079882479E+01  0.60660754915E+02 -0.10631350704E+03  0.29015347065E+03  0.26298364752E+03 0.  0.
         25    1    3    3    0    0 -0.13405119430E+02  0.52663135833E+02 -0.86891285380E+02  0.16171180129E+03  0.12509000000E+03 0.  0.
         25    1    1    2    0    0 -0.68079882479E+01 -0.60660754915E+02 -0.26371780999E+03  0.29819568625E+03  0.12509000000E+03 0.  0.
         25    1    3    3    0    0  0.20213107678E+02  0.79976190821E+01 -0.19422221662E+02  0.12844166936E+03  0.12509000000E+03 0.  0.
<mgrwt>
<rscale>  2 0.45741836E+03</rscale>
<asrwt>0</asrwt>
<pdfrwt beam="1">  1       21 0.16052782E-01 0.45741836E+03</pdfrwt>
<pdfrwt beam="2">  1       21 0.70469153E-01 0.45741836E+03</pdfrwt>
<totfact> 0.58279199E+04</totfact>
</mgrwt>
</event>
<event>
 6    0  0.1539497E-004  0.4034923E+03  0.7546771E-02  0.1042577E+00
         21   -1    0    0  502  501  0.00000000000E+00  0.00000000000E+00  0.59596307231E+03  0.59596307231E+03  0.00000000000E+00 0.  1.
         21   -1    0    0  501  502 -0.00000000000E+00 -0.00000000000E+00 -0.68295361929E+02  0.68295361929E+02  0.00000000000E+00 0.  1.
      99925    2    1    2    0    0 -0.54147040070E+01 -0.50883518563E+02  0.33363497952E+03  0.42779562485E+03  0.26282759672E+03 0.  0.
         25    1    3    3    0    0  0.27519835952E+02 -0.19091471356E+02  0.12315522550E+03  0.17870798336E+03  0.12509000000E+03 0.  0.
         25    1    1    2    0    0  0.54147040070E+01  0.50883518563E+02  0.19403273086E+03  0.23646280939E+03  0.12509000000E+03 0.  0.
         25    1    3    3    0    0 -0.32934539959E+02 -0.31792047207E+02  0.21047975402E+03  0.24908764148E+03  0.12509000000E+03 0.  0.
<mgrwt>
<rscale>  2 0.40349232E+03</rscale>
<asrwt>0</asrwt>
<pdfrwt beam="1">  1       21 0.87641626E-01 0.40349232E+03</pdfrwt>
<pdfrwt beam="2">  1       21 0.10043436E-01 0.40349232E+03</pdfrwt>
<totfact> 0.84196933E+04</totfact>
</mgrwt>
</event>
<event>
 6    0  0.1539497E-004  0.4419686E+03  0.7546771E-02  0.1030145E+00
         21   -1    0    0  502  501  0.00000000000E+00  0.00000000000E+00  0.37668655747E+03  0.37668655747E+03  0.00000000000E+00 0.  1.
         21   -1    0    0  501  502 -0.00000000000E+00 -0.00000000000E+00 -0.12964112093E+03  0.12964112093E+03  0.00000000000E+00 0.  1.
      99925    2    1    2    0    0  0.25347232657E+01 -0.74765449788E+02  0.23427223243E+03  0.36001650266E+03  0.26292984995E+03 0.  0.
         25    1    3    3    0    0 -0.15196628493E+00  0.42081021444E+01  0.99765266463E+02  0.16005732632E+03  0.12509000000E+03 0.  0.
         25    1    1    2    0    0 -0.25347232657E+01  0.74765449788E+02  0.12773204108E+02  0.14631117574E+03  0.12509000000E+03 0.  0.
         25    1    3    3    0    0  0.26866895506E+01 -0.78973551933E+02  0.13450696597E+03  0.19995917633E+03  0.12509000000E+03 0.  0.
<mgrwt>
<rscale>  2 0.44196863E+03</rscale>
<asrwt>0</asrwt>
<pdfrwt beam="1">  1       21 0.55395082E-01 0.44196863E+03</pdfrwt>
<pdfrwt beam="2">  1       21 0.19064871E-01 0.44196863E+03</pdfrwt>
<totfact> 0.71989575E+04</totfact>
</mgrwt>
</event>
<event>
 6    0  0.1539497E-004  0.4258685E+03  0.7546771E-02  0.1035173E+00
         21   -1    0    0  502  501  0.00000000000E+00  0.00000000000E+00  0.97712271882E+03  0.97712271882E+03  0.00000000000E+00 0. -1.
         21   -1    0    0  501  502 -0.00000000000E+00 -0.00000000000E+00 -0.46402564979E+02  0.46402564979E+02  0.00000000000E+00 0. -1.
      99925    2    1    2    0    0  0.30344061322E+01  0.82444040237E+02  0.62394284159E+03  0.68210757072E+03  0.26298258701E+03 0.  0.
         25    1    1    2    0    0 -0.30344061322E+01 -0.82444040237E+02  0.30677731225E+03  0.34141771308E+03  0.12509000000E+03 0.  0.
         25    1    3    3    0    0 -0.12440764029E+02  0.63785736523E+02  0.24934917718E+03  0.28643657772E+03  0.12509000000E+03 0.  0.
         25    1    3    3    0    0  0.15475170161E+02  0.18658303714E+02  0.37459366440E+03  0.39567099300E+03  0.12509000000E+03 0.  0.
<mgrwt>
<rscale>  2 0.42586853E+03</rscale>
<asrwt>0</asrwt>
<pdfrwt beam="1">  1       21 0.14369450E+00 0.42586853E+03</pdfrwt>
<pdfrwt beam="2">  1       21 0.68239072E-02 0.42586853E+03</pdfrwt>
<totfact> 0.48362550E+04</totfact>
</mgrwt>
</event>
<event>
 6    0  0.1539497E-004  0.4423633E+03  0.7546771E-02  0.1030024E+00
         21   -1    0    0  502  501  0.00000000000E+00  0.00000000000E+00  0.34180168486E+02  0.34180168486E+02  0.00000000000E+00 0. -1.
         21   -1    0    0  501  502 -0.00000000000E+00 -0.00000000000E+00 -0.14312781124E+04  0.14312781124E+04  0.00000000000E+00 0. -1.
      99925    2    1    2    0    0 -0.65260983702E+02  0.49541616915E+02 -0.10844924299E+04  0.11189282197E+04  0.26298890200E+03 0.  0.
         25    1    1    2    0    0  0.65260983702E+02 -0.49541616915E+02 -0.31260551403E+03  0.34653006118E+03  0.12509000000E+03 0.  0.
         25    1    3    3    0    0 -0.66834597432E+02  0.26015560498E+02 -0.48053656799E+03  0.50170367158E+03  0.12509000000E+03 0.  0.
         25    1    3    3    0    0  0.15736137297E+01  0.23526056417E+02 -0.60395586192E+03  0.61722454815E+03  0.12509000000E+03 0.  0.
<mgrwt>
<rscale>  2 0.44236332E+03</rscale>
<asrwt>0</asrwt>
<pdfrwt beam="1">  1       21 0.50264960E-02 0.44236332E+03</pdfrwt>
<pdfrwt beam="2">  1       21 0.21048205E+00 0.44236332E+03</pdfrwt>
<totfact> 0.27213553E+04</totfact>
</mgrwt>
</event>
<event>
 6    0  0.1539497E-004  0.3948781E+03  0.7546771E-02  0.1045568E+00
         21   -1    0    0  502  501  0.00000000000E+00  0.00000000000E+00  0.91822818639E+03  0.91822818639E+03  0.00000000000E+00 0. -1.
         21   -1    0    0  501  502 -0.00000000000E+00 -0.00000000000E+00 -0.42453693058E+02  0.42453693058E+02  0.00000000000E+00 0. -1.
      99925    2    1    2    0    0  0.20035725166E+02 -0.28186343186E+02  0.59153278014E+03  0.64821306525E+03  0.26281789848E+03 0.  0.
         25    1    3    3    0    0  0.46814505638E+02 -0.67188508897E+00  0.27578211115E+03  0.30642344932E+03  0.12509000000E+03 0.  0.
         25    1    1    2    0    0 -0.20035725166E+02  0.28186343186E+02  0.28424171320E+03  0.31246881420E+03  0.12509000000E+03 0.  0.
         25    1    3    3    0    0 -0.26778780472E+02 -0.27514458097E+02  0.31575066899E+03  0.34178961593E+03  0.12509000000E+03 0.  0.
<mgrwt>
<rscale>  2 0.39487810E+03</rscale>
<asrwt>0</asrwt>
<pdfrwt beam="1">  1       21 0.13503354E+00 0.39487810E+03</pdfrwt>
<pdfrwt beam="2">  1       21 0.62431907E-02 0.39487810E+03</pdfrwt>
<totfact> 0.67149563E+04</totfact>
</mgrwt>
</event>
<event>
 6    0  0.1539497E-004  0.4157708E+03  0.7546771E-02  0.1038452E+00
         21   -1    0    0  502  501  0.00000000000E+00  0.00000000000E+00  0.93726315712E+02  0.93726315712E+02  0.00000000000E+00 0.  1.
         21   -1    0    0  501  502 -0.00000000000E+00 -0.00000000000E+00 -0.46109084290E+03  0.46109084290E+03  0.00000000000E+00 0.  1.
      99925    2    1    2    0    0  0.67597359588E+02  0.19569591553E+02 -0.23677188182E+03  0.36076995028E+03  0.26294801971E+03 0.  0.
         25    1    3    3    0    0  0.94573678271E+01  0.34510403450E+02 -0.86488187225E+02  0.15623099687E+03  0.12509000000E+03 0.  0.
         25    1    3    3    0    0  0.58139991761E+02 -0.14940811898E+02 -0.15028369459E+03  0.20453895341E+03  0.12509000000E+03 0.  0.
         25    1    1    2    0    0 -0.67597359588E+02 -0.19569591553E+02 -0.13059264537E+03  0.19404720833E+03  0.12509000000E+03 0.  0.
<mgrwt>
<rscale>  2 0.41577083E+03</rscale>
<asrwt>0</asrwt>
<pdfrwt beam="1">  1       21 0.13783282E-01 0.41577083E+03</pdfrwt>
<pdfrwt beam="2">  1       21 0.67807477E-01 0.41577083E+03</pdfrwt>
<totfact> 0.85017379E+04</totfact>
</mgrwt>
</event>
<event>
 6    0  0.1539497E-004  0.4279300E+03  0.7546771E-02  0.1034516E+00
         21   -1    0    0  502  501  0.00000000000E+00  0.00000000000E+00  0.37245046828E+03  0.37245046828E+03  0.00000000000E+00 0. -1.
         21   -1    0    0  501  502 -0.00000000000E+00 -0.00000000000E+00 -0.12291841445E+03  0.12291841445E+03  0.00000000000E+00 0. -1.
      99925    2    1    2    0    0 -0.16438587855E+02 -0.78988530051E+01  0.64767813522E+02  0.27149849245E+03  0.26302840662E+03 0.  0.
         25    1    3    3    0    0 -0.19717208741E+02 -0.28399753439E+02  0.63982657854E+02  0.14469486142E+03  0.12509000000E+03 0.  0.
         25    1    1    2    0    0  0.16438587855E+02  0.78988530051E+01  0.18476424031E+03  0.22387039028E+03  0.12509000000E+03 0.  0.
         25    1    3    3    0    0  0.32786208861E+01  0.20500900434E+02  0.78515566787E+00  0.12680363103E+03  0.12509000000E+03 0.  0.
<mgrwt>
<rscale>  2 0.42793000E+03</rscale>
<asrwt>0</asrwt>
<pdfrwt beam="1">  1       21 0.54772127E-01 0.42793000E+03</pdfrwt>
<pdfrwt beam="2">  1       21 0.18076238E-01 0.42793000E+03</pdfrwt>
<totfact> 0.81804748E+04</totfact>
</mgrwt>
</event>
<event>
 6    0  0.1539497E-004  0.4107090E+03  0.7546771E-02  0.1040133E+00
         21   -1    0    0  502  501  0.00000000000E+00  0.00000000000E+00  0.67633122467E+03  0.67633122467E+03  0.00000000000E+00 0.  1.
         21   -1    0    0  501  502 -0.00000000000E+00 -0.00000000000E+00 -0.62351795749E+02  0.62351795749E+02  0.00000000000E+00 0.  1.
      99925    2    1    2    0    0 -0.41687933158E+02 -0.47400100287E+02  0.41174868600E+03  0.49265571551E+03  0.26303615783E+03 0.  0.
         25    1    3    3    0    0  0.32258020957E+01  0.11745946065E+01  0.23498382157E+03  0.26622676419E+03  0.12509000000E+03 0.  0.
         25    1    1    2    0    0  0.41687933158E+02  0.47400100287E+02  0.20223074292E+03  0.24602730491E+03  0.12509000000E+03 0.  0.
         25    1    3    3    0    0 -0.44913735254E+02 -0.48574694894E+02  0.17676486442E+03  0.22642895131E+03  0.12509000000E+03 0.  0.
<mgrwt>
<rscale>  2 0.41070898E+03</rscale>
<asrwt>0</asrwt>
<pdfrwt beam="1">  1       21 0.99460470E-01 0.41070898E+03</pdfrwt>
<pdfrwt beam="2">  1       21 0.91693821E-02 0.41070898E+03</pdfrwt>
<totfact> 0.73202782E+04</totfact>
</mgrwt>
</event>
<event>
 6    0  0.1539497E-004  0.4274530E+03  0.7546771E-02  0.1034668E+00
         21   -1    0    0  502  501  0.00000000000E+00  0.00000000000E+00  0.67982970702E+02  0.67982970702E+02  0.00000000000E+00 0. -1.
         21   -1    0    0  501  502 -0.00000000000E+00 -0.00000000000E+00 -0.67191865189E+03  0.67191865189E+03  0.00000000000E+00 0. -1.
      99925    2    1    2    0    0 -0.56578332737E+02 -0.67977158580E+01 -0.49872686588E+03  0.56680130603E+03  0.26322598103E+03 0.  0.
         25    1    3    3    0    0 -0.21216804354E+02 -0.41737290660E+02 -0.27459569246E+03  0.30535627820E+03  0.12509000000E+03 0.  0.
         25    1    1    2    0    0  0.56578332737E+02  0.67977158580E+01 -0.10520881531E+03  0.17310031656E+03  0.12509000000E+03 0.  0.
         25    1    3    3    0    0 -0.35361528383E+02  0.34939574802E+02 -0.22413117341E+03  0.26144502782E+03  0.12509000000E+03 0.  0.
<mgrwt>
<rscale>  2 0.42745304E+03</rscale>
<asrwt>0</asrwt>
<pdfrwt beam="1">  1       21 0.99974963E-02 0.42745304E+03</pdfrwt>
<pdfrwt beam="2">  1       21 0.98811561E-01 0.42745304E+03</pdfrwt>
<totfact> 0.63454765E+04</totfact>
</mgrwt>
</event>
<event>
 6    0  0.1539497E-004  0.4738763E+03  0.7546771E-02  0.1020832E+00
         21   -1    0    0  502  501  0.00000000000E+00  0.00000000000E+00  0.13395898004E+03  0.13395898004E+03  0.00000000000E+00 0. -1.
         21   -1    0    0  501  502 -0.00000000000E+00 -0.00000000000E+00 -0.41908123864E+03  0.41908123864E+03  0.00000000000E+00 0. -1.
      99925    2    1    2    0    0 -0.20110304725E+02 -0.12396372079E+03 -0.21687089004E+03  0.36310026543E+03  0.26274967437E+03 0.  0.
         25    1    3    3    0    0 -0.25530046018E+02 -0.92164341601E+02 -0.86887730466E+02  0.17984169405E+03  0.12509000000E+03 0.  0.
         25    1    1    2    0    0  0.20110304725E+02  0.12396372079E+03 -0.68251368557E+02  0.18993995325E+03  0.12509000000E+03 0.  0.
         25    1    3    3    0    0  0.54197412932E+01 -0.31799379191E+02 -0.12998315957E+03  0.18325857138E+03  0.12509000000E+03 0.  0.
<mgrwt>
<rscale>  2 0.47387634E+03</rscale>
<asrwt>0</asrwt>
<pdfrwt beam="1">  1       21 0.19699850E-01 0.47387634E+03</pdfrwt>
<pdfrwt beam="2">  1       21 0.61629595E-01 0.47387634E+03</pdfrwt>
<totfact> 0.53251422E+04</totfact>
</mgrwt>
</event>
<event>
 6    0  0.1539497E-004  0.4055109E+03  0.7546771E-02  0.1041888E+00
         21   -1    0    0  502  501  0.00000000000E+00  0.00000000000E+00  0.13762896833E+03  0.13762896833E+03  0.00000000000E+00 0. -1.
         21   -1    0    0  501  502 -0.00000000000E+00 -0.00000000000E+00 -0.29869996311E+03  0.29869996311E+03  0.00000000000E+00 0. -1.
      99925    2    1    2    0    0  0.33078951829E+02 -0.59409889530E+01 -0.59535376908E+02  0.27174915686E+03  0.26300880355E+03 0.  0.
         25    1    3    3    0    0  0.51604937334E+01  0.35987040028E+02 -0.31298739188E+02  0.13397319478E+03  0.12509000000E+03 0.  0.
         25    1    1    2    0    0 -0.33078951829E+02  0.59409889530E+01 -0.10153561787E+03  0.16457977458E+03  0.12509000000E+03 0.  0.
         25    1    3    3    0    0  0.27918458096E+02 -0.41928028981E+02 -0.28236637720E+02  0.13777596208E+03  0.12509000000E+03 0.  0.
<mgrwt>
<rscale>  2 0.40551088E+03</rscale>
<asrwt>0</asrwt>
<pdfrwt beam="1">  1       21 0.20239554E-01 0.40551088E+03</pdfrwt>
<pdfrwt beam="2">  1       21 0.43926465E-01 0.40551088E+03</pdfrwt>
<totfact> 0.10588511E+05</totfact>
</mgrwt>
</event>
<event>
 6    0  0.1539497E-004  0.4164295E+03  0.7546771E-02  0.1038235E+00
         21   -1    0    0  502  501  0.00000000000E+00  0.00000000000E+00  0.96012729824E+02  0.96012729824E+02  0.00000000000E+00 0. -1.
         21   -1    0    0  501  502 -0.00000000000E+00 -0.00000000000E+00 -0.45153780137E+03  0.45153780137E+03  0.00000000000E+00 0. -1.
      99925    2    1    2    0    0 -0.68589310305E+01 -0.68994913875E+02 -0.25237077746E+03  0.37121091692E+03  0.26324739779E+03 0.  0.
         25    1    3    3    0    0  0.14862867800E+02 -0.19396567391E+02 -0.16811005884E+03  0.21096357896E+03  0.12509000000E+03 0.  0.
         25    1    1    2    0    0  0.68589310305E+01  0.68994913875E+02 -0.10315429408E+03  0.17633961428E+03  0.12509000000E+03 0.  0.
         25    1    3    3    0    0 -0.21721798830E+02 -0.49598346484E+02 -0.84260718626E+02  0.16024733796E+03  0.12509000000E+03 0.  0.
<mgrwt>
<rscale>  2 0.41642948E+03</rscale>
<asrwt>0</asrwt>
<pdfrwt beam="1">  1       21 0.14119519E-01 0.41642948E+03</pdfrwt>
<pdfrwt beam="2">  1       21 0.66402617E-01 0.41642948E+03</pdfrwt>
<totfact> 0.85203039E+04</totfact>
</mgrwt>
</event>
<event>
 6    0  0.1539497E-004  0.4358554E+03  0.7546771E-02  0.1032026E+00
         21   -1    0    0  502  501  0.00000000000E+00  0.00000000000E+00  0.24739148949E+03  0.24739148949E+03  0.00000000000E+00 0.  1.
         21   -1    0    0  501  502 -0.00000000000E+00 -0.00000000000E+00 -0.19197294901E+03  0.19197294901E+03  0.00000000000E+00 0.  1.
      99925    2    1    2    0    0  0.56640962363E+02 -0.85589195057E+01  0.11080434395E+03  0.29105210238E+03  0.26296819188E+03 0.  0.
         25    1    3    3    0    0  0.16814375162E+02 -0.40568400915E+02  0.39860926277E+02  0.13843742236E+03  0.12509000000E+03 0.  0.
         25    1    3    3    0    0  0.39826587201E+02  0.32009481409E+02  0.70943417669E+02  0.15261468002E+03  0.12509000000E+03 0.  0.
         25    1    1    2    0    0 -0.56640962363E+02  0.85589195057E+01 -0.55385803471E+02  0.14831233612E+03  0.12509000000E+03 0.  0.
<mgrwt>
<rscale>  2 0.43585536E+03</rscale>
<asrwt>0</asrwt>
<pdfrwt beam="1">  1       21 0.36381101E-01 0.43585536E+03</pdfrwt>
<pdfrwt beam="2">  1       21 0.28231316E-01 0.43585536E+03</pdfrwt>
<totfact> 0.81455084E+04</totfact>
</mgrwt>
</event>
<event>
 6    0  0.1539497E-004  0.5171652E+03  0.7546771E-02  0.1009393E+00
         21   -1    0    0  502  501  0.00000000000E+00  0.00000000000E+00  0.63449293743E+02  0.63449293743E+02  0.00000000000E+00 0. -1.
         21   -1    0    0  501  502 -0.00000000000E+00 -0.00000000000E+00 -0.10538331186E+04  0.10538331186E+04  0.00000000000E+00 0. -1.
      99925    2    1    2    0    0 -0.35128167258E+02 -0.45630818466E+02 -0.92774701208E+03  0.96599778608E+03  0.26290881416E+03 0.  0.
         25    1    3    3    0    0 -0.50050778744E+02 -0.46847422345E+02 -0.52234014877E+03  0.54146698935E+03  0.12509000000E+03 0.  0.
         25    1    1    2    0    0  0.35128167258E+02  0.45630818466E+02 -0.62636812780E+02  0.15128462626E+03  0.12509000000E+03 0.  0.
         25    1    3    3    0    0  0.14922611487E+02  0.12166038789E+01 -0.40540686330E+03  0.42453079673E+03  0.12509000000E+03 0.  0.
<mgrwt>
<rscale>  2 0.51716522E+03</rscale>
<asrwt>0</asrwt>
<pdfrwt beam="1">  1       21 0.93307795E-02 0.51716522E+03</pdfrwt>
<pdfrwt beam="2">  1       21 0.15497544E+00 0.51716522E+03</pdfrwt>
<totfact> 0.22086648E+04</totfact>
</mgrwt>
</event>
<event>
 6    0  0.1539497E-004  0.4868928E+03  0.7546771E-02  0.1017258E+00
         21   -1    0    0  502  501  0.00000000000E+00  0.00000000000E+00  0.14391824242E+03  0.14391824242E+03  0.00000000000E+00 0. -1.
         21   -1    0    0  501  502 -0.00000000000E+00 -0.00000000000E+00 -0.41180423380E+03  0.41180423380E+03  0.00000000000E+00 0. -1.
      99925    2    1    2    0    0  0.13871216746E+03 -0.25298001487E+02 -0.16572122094E+03  0.34132517517E+03  0.26297965293E+03 0.  0.
         25    1    3    3    0    0  0.23698060345E+02 -0.11141855826E+02 -0.67196796054E+02  0.14439063860E+03  0.12509000000E+03 0.  0.
         25    1    3    3    0    0  0.11501410712E+03 -0.14156145661E+02 -0.98524424885E+02  0.19693453657E+03  0.12509000000E+03 0.  0.
         25    1    1    2    0    0 -0.13871216746E+03  0.25298001487E+02 -0.10216477044E+03  0.21439730106E+03  0.12509000000E+03 0.  0.
<mgrwt>
<rscale>  2 0.48689277E+03</rscale>
<asrwt>0</asrwt>
<pdfrwt beam="1">  1       21 0.21164448E-01 0.48689277E+03</pdfrwt>
<pdfrwt beam="2">  1       21 0.60559445E-01 0.48689277E+03</pdfrwt>
<totfact> 0.48133151E+04</totfact>
</mgrwt>
</event>
<event>
 6    0  0.1539497E-004  0.4066865E+03  0.7546771E-02  0.1041489E+00
         21   -1    0    0  502  501  0.00000000000E+00  0.00000000000E+00  0.25195238026E+03  0.25195238026E+03  0.00000000000E+00 0.  1.
         21   -1    0    0  501  502 -0.00000000000E+00 -0.00000000000E+00 -0.16411229294E+03  0.16411229294E+03  0.00000000000E+00 0.  1.
      99925    2    1    2    0    0  0.20645129508E+02  0.53214202436E+02  0.55535761064E+02  0.27482356620E+03  0.26303193545E+03 0.  0.
         25    1    3    3    0    0 -0.10709456591E+02  0.34098585666E+02 -0.68927685416E+01  0.13027825745E+03  0.12509000000E+03 0.  0.
         25    1    1    2    0    0 -0.20645129508E+02 -0.53214202436E+02  0.32304326257E+02  0.14124110701E+03  0.12509000000E+03 0.  0.
         25    1    3    3    0    0  0.31354586099E+02  0.19115616770E+02  0.62428529605E+02  0.14454530875E+03  0.12509000000E+03 0.  0.
<mgrwt>
<rscale>  2 0.40668653E+03</rscale>
<asrwt>0</asrwt>
<pdfrwt beam="1">  1       21 0.37051821E-01 0.40668653E+03</pdfrwt>
<pdfrwt beam="2">  1       21 0.24134160E-01 0.40668653E+03</pdfrwt>
<totfact> 0.10722083E+05</totfact>
</mgrwt>
</event>
<event>
 6    0  0.1539497E-004  0.4790531E+03  0.7546771E-02  0.1019396E+00
         21   -1    0    0  502  501  0.00000000000E+00  0.00000000000E+00  0.30539685498E+02  0.30539685498E+02  0.00000000000E+00 0.  1.
         21   -1    0    0  501  502 -0.00000000000E+00 -0.00000000000E+00 -0.18786362896E+04  0.18786362896E+04  0.00000000000E+00 0.  1.
      99925    2    1    2    0    0 -0.46783211022E+02 -0.34506436848E+02 -0.16227910292E+04  0.16449990018E+04  0.26304301660E+03 0.  0.
         25    1    3    3    0    0  0.80069345425E+01 -0.19326484526E+02 -0.62007927136E+03  0.63291660974E+03  0.12509000000E+03 0.  0.
         25    1    1    2    0    0  0.46783211022E+02  0.34506436848E+02 -0.22530557490E+03  0.26417697326E+03  0.12509000000E+03 0.  0.
         25    1    3    3    0    0 -0.54790145564E+02 -0.15179952322E+02 -0.10027117578E+04  0.10120823921E+04  0.12509000000E+03 0.  0.
<mgrwt>
<rscale>  2 0.47905307E+03</rscale>
<asrwt>0</asrwt>
<pdfrwt beam="1">  1       21 0.44911283E-02 0.47905307E+03</pdfrwt>
<pdfrwt beam="2">  1       21 0.27627016E+00 0.47905307E+03</pdfrwt>
<totfact> 0.12706561E+04</totfact>
</mgrwt>
</event>
<event>
 6    0  0.1539497E-004  0.4188183E+03  0.7546771E-02  0.1037452E+00
         21   -1    0    0  502  501  0.00000000000E+00  0.00000000000E+00  0.15462467577E+03  0.15462467577E+03  0.00000000000E+00 0.  1.
         21   -1    0    0  501  502 -0.00000000000E+00 -0.00000000000E+00 -0.28360404679E+03  0.28360404679E+03  0.00000000000E+00 0.  1.
      99925    2    1    2    0    0 -0.94095144390E+00  0.45716090031E+02 -0.22665725992E+02  0.26781468119E+03  0.26290705972E+03 0.  0.
         25    1    1    2    0    0  0.94095144390E+00 -0.45716090031E+02 -0.10631364502E+03  0.17041404137E+03  0.12509000000E+03 0.  0.
         25    1    3    3    0    0 -0.61645932858E+01  0.23202523924E+02  0.28804282504E+02  0.13058925728E+03  0.12509000000E+03 0.  0.
         25    1    3    3    0    0  0.52236418419E+01  0.22513566107E+02 -0.51470008496E+02  0.13722542391E+03  0.12509000000E+03 0.  0.
<mgrwt>
<rscale>  2 0.41881826E+03</rscale>
<asrwt>0</asrwt>
<pdfrwt beam="1">  1       21 0.22738923E-01 0.41881826E+03</pdfrwt>
<pdfrwt beam="2">  1       21 0.41706477E-01 0.41881826E+03</pdfrwt>
<totfact> 0.94124340E+04</totfact>
</mgrwt>
</event>
<event>
 5    0  0.1539497E-004  0.4901705E+03  0.7546771E-02  0.1016377E+00
         21   -1    0    0  502  501  0.00000000000E+00  0.00000000000E+00  0.22073962917E+04  0.22073962917E+04  0.00000000000E+00 0. -1.
         21   -1    0    0  501  502 -0.00000000000E+00 -0.00000000000E+00 -0.27211598896E+02  0.27211598896E+02  0.00000000000E+00 0. -1.
         25    1    1    2    0    0 -0.96951075811E+01 -0.80373347888E+02  0.30963171747E+03  0.34361777999E+03  0.12509000000E+03 0.  0.
         25    1    1    2    0    0 -0.25084796718E+02  0.62759721162E+02  0.81132020558E+03  0.82368441390E+03  0.12509000000E+03 0.  0.
         25    1    1    2    0    0  0.34779904299E+02  0.17613626726E+02  0.10592327697E+04  0.10673056967E+04  0.12509000000E+03 0.  0.
<mgrwt>
<rscale>  2 0.49017051E+03</rscale>
<asrwt>0</asrwt>
<pdfrwt beam="1">  1       21 0.32461698E+00 0.49017051E+03</pdfrwt>
<pdfrwt beam="2">  1       21 0.40017072E-02 0.49017051E+03</pdfrwt>
<totfact> 0.78655743E+03</totfact>
</mgrwt>
</event>
<event>
 6    0  0.1539497E-004  0.4236286E+03  0.7546771E-02  0.1035892E+00
         21   -1    0    0  502  501  0.00000000000E+00  0.00000000000E+00  0.46246388486E+02  0.46246388486E+02  0.00000000000E+00 0.  1.
         21   -1    0    0  501  502 -0.00000000000E+00 -0.00000000000E+00 -0.97013633298E+03  0.97013633298E+03  0.00000000000E+00 0.  1.
      99925    2    1    2    0    0  0.74211856507E+02 -0.20552431816E+02 -0.54396256681E+03  0.60904732832E+03  0.26289460234E+03 0.  0.
         25    1    3    3    0    0  0.20078985812E+02 -0.46942129024E+02 -0.26781108859E+03  0.29996169158E+03  0.12509000000E+03 0.  0.
         25    1    1    2    0    0 -0.74211856507E+02  0.20552431816E+02 -0.37992737768E+03  0.40733539315E+03  0.12509000000E+03 0.  0.
         25    1    3    3    0    0  0.54132870695E+02  0.26389697207E+02 -0.27615147823E+03  0.30908563673E+03  0.12509000000E+03 0.  0.
<mgrwt>
<rscale>  2 0.42362862E+03</rscale>
<asrwt>0</asrwt>
<pdfrwt beam="1">  1       21 0.68009405E-02 0.42362862E+03</pdfrwt>
<pdfrwt beam="2">  1       21 0.14266709E+00 0.42362862E+03</pdfrwt>
<totfact> 0.49620910E+04</totfact>
</mgrwt>
</event>
<event>
 6    0  0.1539497E-004  0.4047816E+03  0.7546771E-02  0.1042136E+00
         21   -1    0    0  502  501  0.00000000000E+00  0.00000000000E+00  0.25442928472E+03  0.25442928472E+03  0.00000000000E+00 0. -1.
         21   -1    0    0  501  502 -0.00000000000E+00 -0.00000000000E+00 -0.16099574274E+03  0.16099574274E+03  0.00000000000E+00 0. -1.
      99925    2    1    2    0    0  0.40181182918E+02 -0.24952206221E+02  0.88659075652E+02  0.28160633039E+03  0.26306758365E+03 0.  0.
         25    1    3    3    0    0  0.19085184712E+02 -0.34706258709E+01  0.85779971958E+02  0.15291174320E+03  0.12509000000E+03 0.  0.
         25    1    3    3    0    0  0.21095998206E+02 -0.21481580350E+02  0.28791036938E+01  0.12869458719E+03  0.12509000000E+03 0.  0.
         25    1    1    2    0    0 -0.40181182918E+02  0.24952206221E+02  0.47744663245E+01  0.13381869707E+03  0.12509000000E+03 0.  0.
<mgrwt>
<rscale>  2 0.40478158E+03</rscale>
<asrwt>0</asrwt>
<pdfrwt beam="1">  1       21 0.37416071E-01 0.40478158E+03</pdfrwt>
<pdfrwt beam="2">  1       21 0.23675844E-01 0.40478158E+03</pdfrwt>
<totfact> 0.10911677E+05</totfact>
</mgrwt>
</event>
<event>
 6    0  0.1539497E-004  0.4457033E+03  0.7546771E-02  0.1029011E+00
         21   -1    0    0  502  501  0.00000000000E+00  0.00000000000E+00  0.65787148549E+02  0.65787148549E+02  0.00000000000E+00 0.  1.
         21   -1    0    0  501  502 -0.00000000000E+00 -0.00000000000E+00 -0.75490211903E+03  0.75490211903E+03  0.00000000000E+00 0.  1.
      99925    2    1    2    0    0  0.58672029079E+02 -0.80925668328E+02 -0.38293019398E+03  0.47516358655E+03  0.26297058719E+03 0.  0.
         25    1    3    3    0    0  0.16454045694E+02 -0.36203410975E+02 -0.12133692267E+03  0.17875004752E+03  0.12509000000E+03 0.  0.
         25    1    3    3    0    0  0.42217983386E+02 -0.44722257353E+02 -0.26159327131E+03  0.29641353902E+03  0.12509000000E+03 0.  0.
         25    1    1    2    0    0 -0.58672029079E+02  0.80925668328E+02 -0.30618477650E+03  0.34552568103E+03  0.12509000000E+03 0.  0.
<mgrwt>
<rscale>  2 0.44570330E+03</rscale>
<asrwt>0</asrwt>
<pdfrwt beam="1">  1       21 0.96745804E-02 0.44570330E+03</pdfrwt>
<pdfrwt beam="2">  1       21 0.11101502E+00 0.44570330E+03</pdfrwt>
<totfact> 0.50354283E+04</totfact>
</mgrwt>
</event>
<event>
 6    0  0.1539497E-004  0.4234321E+03  0.7546771E-02  0.1035955E+00
         21   -1    0    0  502  501  0.00000000000E+00  0.00000000000E+00  0.86321043787E+02  0.86321043787E+02  0.00000000000E+00 0. -1.
         21   -1    0    0  501  502 -0.00000000000E+00 -0.00000000000E+00 -0.51926718205E+03  0.51926718205E+03  0.00000000000E+00 0. -1.
      99925    2    1    2    0    0  0.77029413671E+02  0.61615275331E+01 -0.31168461753E+03  0.41500134407E+03  0.26288271107E+03 0.  0.
         25    1    1    2    0    0 -0.77029413671E+02 -0.61615275331E+01 -0.12126152074E+03  0.19058688177E+03  0.12509000000E+03 0.  0.
         25    1    3    3    0    0  0.79375269957E+02 -0.14583533374E+00 -0.18234015801E+03  0.23493806859E+03  0.12509000000E+03 0.  0.
         25    1    3    3    0    0 -0.23458562866E+01  0.63073628668E+01 -0.12934445951E+03  0.18006327547E+03  0.12509000000E+03 0.  0.
<mgrwt>
<rscale>  2 0.42343210E+03</rscale>
<asrwt>0</asrwt>
<pdfrwt beam="1">  1       21 0.12694271E-01 0.42343210E+03</pdfrwt>
<pdfrwt beam="2">  1       21 0.76362820E-01 0.42343210E+03</pdfrwt>
<totfact> 0.75462594E+04</totfact>
</mgrwt>
</event>
<event>
 6    0  0.1539497E-004  0.4022467E+03  0.7546771E-02  0.1043004E+00
         21   -1    0    0  502  501  0.00000000000E+00  0.00000000000E+00  0.14511008802E+03  0.14511008802E+03  0.00000000000E+00 0.  1.
         21   -1    0    0  501  502 -0.00000000000E+00 -0.00000000000E+00 -0.27875800336E+03  0.27875800336E+03  0.00000000000E+00 0.  1.
      99925    2    1    2    0    0  0.25557119640E+01 -0.25205569995E+02 -0.13391536969E+03  0.29623803202E+03  0.26302432008E+03 0.  0.
         25    1    3    3    0    0 -0.55585999811E+00 -0.15985987415E+02 -0.11241895545E+03  0.16894197352E+03  0.12509000000E+03 0.  0.
         25    1    1    2    0    0 -0.25557119640E+01  0.25205569995E+02  0.26745434914E+00  0.12763005937E+03  0.12509000000E+03 0.  0.
         25    1    3    3    0    0  0.31115719622E+01 -0.92195825799E+01 -0.21496414239E+02  0.12729605849E+03  0.12509000000E+03 0.  0.
<mgrwt>
<rscale>  2 0.40224668E+03</rscale>
<asrwt>0</asrwt>
<pdfrwt beam="1">  1       21 0.21339719E-01 0.40224668E+03</pdfrwt>
<pdfrwt beam="2">  1       21 0.40993824E-01 0.40224668E+03</pdfrwt>
<totfact> 0.11053489E+05</totfact>
</mgrwt>
</event>
<event>
 6    0  0.1539497E-004  0.3976517E+03  0.7546771E-02  0.1044596E+00
         21   -1    0    0  502  501  0.00000000000E+00  0.00000000000E+00  0.88022734036E+02  0.88022734036E+02  0.00000000000E+00 0. -1.
         21   -1    0    0  501  502 -0.00000000000E+00 -0.00000000000E+00 -0.44910811177E+03  0.44910811177E+03  0.00000000000E+00 0. -1.
      99925    2    1    2    0    0  0.37756980686E+02 -0.12026618073E+02 -0.23139382197E+03  0.35263792760E+03  0.26313528460E+03 0.  0.
         25    1    3    3    0    0  0.52315224499E+02 -0.20460171344E+02 -0.14570593066E+03  0.20008305189E+03  0.12509000000E+03 0.  0.
         25    1    1    2    0    0 -0.37756980686E+02  0.12026618073E+02 -0.12969155576E+03  0.18449291821E+03  0.12509000000E+03 0.  0.
         25    1    3    3    0    0 -0.14558243813E+02  0.84335532709E+01 -0.85687891315E+02  0.15255487571E+03  0.12509000000E+03 0.  0.
<mgrwt>
<rscale>  2 0.39765173E+03</rscale>
<asrwt>0</asrwt>
<pdfrwt beam="1">  1       21 0.12944520E-01 0.39765173E+03</pdfrwt>
<pdfrwt beam="2">  1       21 0.66045311E-01 0.39765173E+03</pdfrwt>
<totfact> 0.10154925E+05</totfact>
</mgrwt>
</event>
<event>
 6    0  0.1539497E-004  0.4958596E+03  0.7546771E-02  0.1014865E+00
         21   -1    0    0  502  501  0.00000000000E+00  0.00000000000E+00  0.21328647545E+03  0.21328647545E+03  0.00000000000E+00 0. -1.
         21   -1    0    0  501  502 -0.00000000000E+00 -0.00000000000E+00 -0.28820015464E+03  0.28820015464E+03  0.00000000000E+00 0. -1.
      99925    2    1    2    0    0 -0.16811772386E+02  0.52237749158E+01 -0.19440893450E+03  0.32760003584E+03  0.26309128863E+03 0.  0.
         25    1    1    2    0    0  0.16811772386E+02 -0.52237749158E+01  0.11949525532E+03  0.17388659425E+03  0.12509000000E+03 0.  0.
         25    1    3    3    0    0  0.10553792479E+02  0.13729820538E+02 -0.13905711953E+03  0.18784110599E+03  0.12509000000E+03 0.  0.
         25    1    3    3    0    0 -0.27365564865E+02 -0.85060456226E+01 -0.55351814970E+02  0.13975892985E+03  0.12509000000E+03 0.  0.
<mgrwt>
<rscale>  2 0.49585964E+03</rscale>
<asrwt>0</asrwt>
<pdfrwt beam="1">  1       21 0.31365658E-01 0.49585964E+03</pdfrwt>
<pdfrwt beam="2">  1       21 0.42382375E-01 0.49585964E+03</pdfrwt>
<totfact> 0.47702907E+04</totfact>
</mgrwt>
</event>
<event>
 6    0  0.1539497E-004  0.4057921E+03  0.7546771E-02  0.1041792E+00
         21   -1    0    0  502  501  0.00000000000E+00  0.00000000000E+00  0.70372986587E+03  0.70372986587E+03  0.00000000000E+00 0. -1.
         21   -1    0    0  501  502 -0.00000000000E+00 -0.00000000000E+00 -0.58498038399E+02  0.58498038399E+02  0.00000000000E+00 0. -1.
      99925    2    1    2    0    0  0.16410215746E+01  0.55318089028E+02  0.42242848730E+03  0.50078647600E+03  0.26320806168E+03 0.  0.
         25    1    3    3    0    0 -0.38565035670E+01  0.69148896866E+02  0.22657800475E+03  0.26792077728E+03  0.12509000000E+03 0.  0.
         25    1    3    3    0    0  0.54975251416E+01 -0.13830807838E+02  0.19585048255E+03  0.23286569873E+03  0.12509000000E+03 0.  0.
         25    1    1    2    0    0 -0.16410215746E+01 -0.55318089028E+02  0.22280334017E+03  0.26144142827E+03  0.12509000000E+03 0.  0.
<mgrwt>
<rscale>  2 0.40579215E+03</rscale>
<asrwt>0</asrwt>
<pdfrwt beam="1">  1       21 0.10348968E+00 0.40579215E+03</pdfrwt>
<pdfrwt beam="2">  1       21 0.86026531E-02 0.40579215E+03</pdfrwt>
<totfact> 0.74534799E+04</totfact>
</mgrwt>
</event>
<event>
 6    0  0.1539497E-004  0.4239683E+03  0.7546771E-02  0.1035782E+00
         21   -1    0    0  502  501  0.00000000000E+00  0.00000000000E+00  0.53740953227E+03  0.53740953227E+03  0.00000000000E+00 0.  1.
         21   -1    0    0  501  502 -0.00000000000E+00 -0.00000000000E+00 -0.83618305419E+02  0.83618305419E+02  0.00000000000E+00 0.  1.
      99925    2    1    2    0    0 -0.40849995572E+02  0.19674621287E+02  0.19680229364E+03  0.33163773290E+03  0.26305252372E+03 0.  0.
         25    1    1    2    0    0  0.40849995572E+02 -0.19674621287E+02  0.25698893320E+03  0.28939010479E+03  0.12509000000E+03 0.  0.
         25    1    3    3    0    0 -0.24780269736E+02 -0.37907844570E+00  0.14690761990E+03  0.19453421897E+03  0.12509000000E+03 0.  0.
         25    1    3    3    0    0 -0.16069725835E+02  0.20053699733E+02  0.49894673749E+02  0.13710351392E+03  0.12509000000E+03 0.  0.
<mgrwt>
<rscale>  2 0.42396827E+03</rscale>
<asrwt>0</asrwt>
<pdfrwt beam="1">  1       21 0.79030812E-01 0.42396827E+03</pdfrwt>
<pdfrwt beam="2">  1       21 0.12296810E-01 0.42396827E+03</pdfrwt>
<totfact> 0.73908429E+04</totfact>
</mgrwt>
</event>
<event>
 6    0  0.1539497E-004  0.3904618E+03  0.7546771E-02  0.1047133E+00
         21   -1    0    0  502  501  0.00000000000E+00  0.00000000000E+00  0.32285927707E+03  0.32285927707E+03  0.00000000000E+00 0.  1.
         21   -1    0    0  501  502 -0.00000000000E+00 -0.00000000000E+00 -0.11805487544E+03  0.11805487544E+03  0.00000000000E+00 0.  1.
      99925    2    1    2    0    0 -0.13951558821E+02  0.13900531375E+02  0.14315569589E+03  0.30007402405E+03  0.26298858507E+03 0.  0.
         25    1    3    3    0    0 -0.14669109586E+02  0.11406490423E+02  0.11693324785E+03  0.17223873940E+03  0.12509000000E+03 0.  0.
         25    1    1    2    0    0  0.13951558821E+02 -0.13900531375E+02  0.61648705731E+02  0.14084012846E+03  0.12509000000E+03 0.  0.
         25    1    3    3    0    0  0.71755076516E+00  0.24940409523E+01  0.26222448048E+02  0.12783528465E+03  0.12509000000E+03 0.  0.
<mgrwt>
<rscale>  2 0.39046184E+03</rscale>
<asrwt>0</asrwt>
<pdfrwt beam="1">  1       21 0.47479305E-01 0.39046184E+03</pdfrwt>
<pdfrwt beam="2">  1       21 0.17361011E-01 0.39046184E+03</pdfrwt>
<totfact> 0.12054406E+05</totfact>
</mgrwt>
</event>
<event>
 6    0  0.1539497E-004  0.3911829E+03  0.7546771E-02  0.1046876E+00
         21   -1    0    0  502  501  0.00000000000E+00  0.00000000000E+00  0.75797511024E+02  0.75797511024E+02  0.00000000000E+00 0.  1.
         21   -1    0    0  501  502 -0.00000000000E+00 -0.00000000000E+00 -0.50471335880E+03  0.50471335880E+03  0.00000000000E+00 0.  1.
      99925    2    1    2    0    0  0.19317749631E+02  0.57418798782E+01 -0.30590636973E+03  0.40391816209E+03  0.26299245235E+03 0.  0.
         25    1    1    2    0    0 -0.19317749631E+02 -0.57418798782E+01 -0.12300947805E+03  0.17659270773E+03  0.12509000000E+03 0.  0.
         25    1    3    3    0    0  0.35026396024E+00  0.42305797029E+02 -0.15533591412E+03  0.20387902654E+03  0.12509000000E+03 0.  0.
         25    1    3    3    0    0  0.18967485671E+02 -0.36563917151E+02 -0.15057045561E+03  0.20003913556E+03  0.12509000000E+03 0.  0.
<mgrwt>
<rscale>  2 0.39118291E+03</rscale>
<asrwt>0</asrwt>
<pdfrwt beam="1">  1       21 0.11146693E-01 0.39118291E+03</pdfrwt>
<pdfrwt beam="2">  1       21 0.74222552E-01 0.39118291E+03</pdfrwt>
<totfact> 0.10268146E+05</totfact>
</mgrwt>
</event>
<event>
 6    0  0.1539497E-004  0.4950431E+03  0.7546771E-02  0.1015081E+00
         21   -1    0    0  502  501  0.00000000000E+00  0.00000000000E+00  0.45573665025E+03  0.45573665025E+03  0.00000000000E+00 0.  1.
         21   -1    0    0  501  502 -0.00000000000E+00 -0.00000000000E+00 -0.13443490669E+03  0.13443490669E+03  0.00000000000E+00 0.  1.
      99925    2    1    2    0    0  0.11750846171E+02 -0.99533187175E+02  0.66595230528E+02  0.28922662242E+03  0.26300603919E+03 0.  0.
         25    1    3    3    0    0  0.25818233209E+02 -0.86615581961E+02  0.27262452435E+02  0.15671499487E+03  0.12509000000E+03 0.  0.
         25    1    1    2    0    0 -0.11750846171E+02  0.99533187175E+02  0.25470651303E+03  0.30094493452E+03  0.12509000000E+03 0.  0.
         25    1    3    3    0    0 -0.14067387039E+02 -0.12917605214E+02  0.39332778092E+02  0.13251162755E+03  0.12509000000E+03 0.  0.
<mgrwt>
<rscale>  2 0.49504309E+03</rscale>
<asrwt>0</asrwt>
<pdfrwt beam="1">  1       21 0.67020095E-01 0.49504309E+03</pdfrwt>
<pdfrwt beam="2">  1       21 0.19769839E-01 0.49504309E+03</pdfrwt>
<totfact> 0.43712804E+04</totfact>
</mgrwt>
</event>
<event>
 6    0  0.1539497E-004  0.3893310E+03  0.7546771E-02  0.1047538E+00
         21   -1    0    0  502  501  0.00000000000E+00  0.00000000000E+00  0.22548936536E+03  0.22548936536E+03  0.00000000000E+00 0. -1.
         21   -1    0    0  501  502 -0.00000000000E+00 -0.00000000000E+00 -0.16805516059E+03  0.16805516059E+03  0.00000000000E+00 0. -1.
      99925    2    1    2    0    0 -0.91857213809E+01 -0.10762559920E+02  0.30350379028E+02  0.26477631602E+03  0.26265022719E+03 0.  0.
         25    1    3    3    0    0  0.19593069115E+02  0.16390769684E+02 -0.84778883225E+01  0.12795283654E+03  0.12509000000E+03 0.  0.
         25    1    3    3    0    0 -0.28778790496E+02 -0.27153329604E+02  0.38828267350E+02  0.13682347948E+03  0.12509000000E+03 0.  0.
         25    1    1    2    0    0  0.91857213809E+01  0.10762559920E+02  0.27083825743E+02  0.12876820994E+03  0.12509000000E+03 0.  0.
<mgrwt>
<rscale>  2 0.38933097E+03</rscale>
<asrwt>0</asrwt>
<pdfrwt beam="1">  1       21 0.33160201E-01 0.38933097E+03</pdfrwt>
<pdfrwt beam="2">  1       21 0.24713994E-01 0.38933097E+03</pdfrwt>
<totfact> 0.12856145E+05</totfact>
</mgrwt>
</event>
<event>
 6    0  0.1539497E-004  0.5410200E+03  0.7546771E-02  0.1003594E+00
         21   -1    0    0  502  501  0.00000000000E+00  0.00000000000E+00  0.27570059148E+03  0.27570059148E+03  0.00000000000E+00 0.  1.
         21   -1    0    0  501  502 -0.00000000000E+00 -0.00000000000E+00 -0.26541715463E+03  0.26541715463E+03  0.00000000000E+00 0.  1.
      99925    2    1    2    0    0  0.14902984338E+03 -0.10202545835E+03  0.30608063005E+02  0.32048300973E+03  0.26297037406E+03 0.  0.
         25    1    3    3    0    0  0.81521599690E+02 -0.52854420438E+02  0.55899405894E+02  0.16796312886E+03  0.12509000000E+03 0.  0.
         25    1    1    2    0    0 -0.14902984338E+03  0.10202545835E+03 -0.20324626150E+02  0.22063473638E+03  0.12509000000E+03 0.  0.
         25    1    3    3    0    0  0.67508243693E+02 -0.49171037910E+02 -0.25291342889E+02  0.15251988087E+03  0.12509000000E+03 0.  0.
<mgrwt>
<rscale>  2 0.54102002E+03</rscale>
<asrwt>0</asrwt>
<pdfrwt beam="1">  1       21 0.40544205E-01 0.54102002E+03</pdfrwt>
<pdfrwt beam="2">  1       21 0.39031935E-01 0.54102002E+03</pdfrwt>
<totfact> 0.33260879E+04</totfact>
</mgrwt>
</event>
<event>
 6    0  0.1539497E-004  0.3955684E+03  0.7546771E-02  0.1045325E+00
         21   -1    0    0  502  501  0.00000000000E+00  0.00000000000E+00  0.58193696301E+02  0.58193696301E+02  0.00000000000E+00 0. -1.
         21   -1    0    0  501  502 -0.00000000000E+00 -0.00000000000E+00 -0.67221344721E+03  0.67221344721E+03  0.00000000000E+00 0. -1.
      99925    2    1    2    0    0  0.17413551277E+02  0.23496229584E+02 -0.37378447160E+03  0.45798136995E+03  0.26301482742E+03 0.  0.
         25    1    1    2    0    0 -0.17413551277E+02 -0.23496229584E+02 -0.24023527931E+03  0.27242577356E+03  0.12509000000E+03 0.  0.
         25    1    3    3    0    0 -0.24321196099E+02  0.12501744023E+02 -0.22486030614E+03  0.25876143368E+03  0.12509000000E+03 0.  0.
         25    1    3    3    0    0  0.41734747376E+02  0.10994485561E+02 -0.14892416546E+03  0.19921993627E+03  0.12509000000E+03 0.  0.
<mgrwt>
<rscale>  2 0.39556838E+03</rscale>
<asrwt>0</asrwt>
<pdfrwt beam="1">  1       21 0.85578960E-02 0.39556838E+03</pdfrwt>
<pdfrwt beam="2">  1       21 0.98854924E-01 0.39556838E+03</pdfrwt>
<totfact> 0.84299503E+04</totfact>
</mgrwt>
</event>
<event>
 6    0  0.1539497E-004  0.4489748E+03  0.7546771E-02  0.1028028E+00
         21   -1    0    0  502  501  0.00000000000E+00  0.00000000000E+00  0.13147116741E+04  0.13147116741E+04  0.00000000000E+00 0. -1.
         21   -1    0    0  501  502 -0.00000000000E+00 -0.00000000000E+00 -0.38331289494E+02  0.38331289494E+02  0.00000000000E+00 0. -1.
      99925    2    1    2    0    0 -0.81422142440E+02 -0.49536383932E+02  0.95709642825E+03  0.99713121681E+03  0.26297085762E+03 0.  0.
         25    1    3    3    0    0 -0.18296943953E+02 -0.58357748044E+02  0.46497632650E+03  0.48537706705E+03  0.12509000000E+03 0.  0.
         25    1    3    3    0    0 -0.63125198487E+02  0.88213641125E+01  0.49212010175E+03  0.51175414976E+03  0.12509000000E+03 0.  0.
         25    1    1    2    0    0  0.81422142440E+02  0.49536383932E+02  0.31928395637E+03  0.35591174679E+03  0.12509000000E+03 0.  0.
<mgrwt>
<rscale>  2 0.44897480E+03</rscale>
<asrwt>0</asrwt>
<pdfrwt beam="1">  1       21 0.19333992E+00 0.44897480E+03</pdfrwt>
<pdfrwt beam="2">  1       21 0.56369552E-02 0.44897480E+03</pdfrwt>
<totfact> 0.28942614E+04</totfact>
</mgrwt>
</event>
<event>
 6    0  0.1539497E-004  0.4075419E+03  0.7546771E-02  0.1041199E+00
         21   -1    0    0  502  501  0.00000000000E+00  0.00000000000E+00  0.15143946640E+03  0.15143946640E+03  0.00000000000E+00 0. -1.
         21   -1    0    0  501  502 -0.00000000000E+00 -0.00000000000E+00 -0.27418615289E+03  0.27418615289E+03  0.00000000000E+00 0. -1.
      99925    2    1    2    0    0 -0.51558592105E+02  0.20940026046E+02 -0.63394492436E+02  0.27640442726E+03  0.26321810847E+03 0.  0.
         25    1    1    2    0    0  0.51558592105E+02 -0.20940026046E+02 -0.59352194060E+02  0.14922119203E+03  0.12509000000E+03 0.  0.
         25    1    3    3    0    0 -0.34122575635E+02  0.50561936234E+02 -0.37256279200E+02  0.14407080899E+03  0.12509000000E+03 0.  0.
         25    1    3    3    0    0 -0.17436016471E+02 -0.29621910189E+02 -0.26138213236E+02  0.13233361827E+03  0.12509000000E+03 0.  0.
<mgrwt>
<rscale>  2 0.40754192E+03</rscale>
<asrwt>0</asrwt>
<pdfrwt beam="1">  1       21 0.22270510E-01 0.40754192E+03</pdfrwt>
<pdfrwt beam="2">  1       21 0.40321492E-01 0.40754192E+03</pdfrwt>
<totfact> 0.10527591E+05</totfact>
</mgrwt>
</event>
<event>
 6    0  0.1539497E-004  0.5155925E+03  0.7546771E-02  0.1009787E+00
         21   -1    0    0  502  501  0.00000000000E+00  0.00000000000E+00  0.28502609025E+03  0.28502609025E+03  0.00000000000E+00 0. -1.
         21   -1    0    0  501  502 -0.00000000000E+00 -0.00000000000E+00 -0.23316784361E+03  0.23316784361E+03  0.00000000000E+00 0. -1.
      99925    2    1    2    0    0  0.67809375352E+02 -0.73233931906E+02 -0.98925324117E+02  0.29832007576E+03  0.26314886981E+03 0.  0.
         25    1    1    2    0    0 -0.67809375352E+02  0.73233931906E+02  0.15078357076E+03  0.21987385811E+03  0.12509000000E+03 0.  0.
         25    1    3    3    0    0  0.27944967586E+02 -0.43696453126E+02 -0.74875454889E+01  0.13562401213E+03  0.12509000000E+03 0.  0.
         25    1    3    3    0    0  0.39864407765E+02 -0.29537478781E+02 -0.91437778628E+02  0.16269606363E+03  0.12509000000E+03 0.  0.
<mgrwt>
<rscale>  2 0.51559255E+03</rscale>
<asrwt>0</asrwt>
<pdfrwt beam="1">  1       21 0.41915602E-01 0.51559255E+03</pdfrwt>
<pdfrwt beam="2">  1       21 0.34289389E-01 0.51559255E+03</pdfrwt>
<totfact> 0.40641279E+04</totfact>
</mgrwt>
</event>
<event>
 6    0  0.1539497E-004  0.4378617E+03  0.7546771E-02  0.1031405E+00
         21   -1    0    0  502  501  0.00000000000E+00  0.00000000000E+00  0.19489762708E+03  0.19489762708E+03  0.00000000000E+00 0. -1.
         21   -1    0    0  501  502 -0.00000000000E+00 -0.00000000000E+00 -0.24592769487E+03  0.24592769487E+03  0.00000000000E+00 0. -1.
      99925    2    1    2    0    0 -0.11788477468E+02 -0.50051597257E+02  0.49064061077E+02  0.27256815770E+03  0.26313872371E+03 0.  0.
         25    1    1    2    0    0  0.11788477468E+02  0.50051597257E+02 -0.10009412886E+03  0.16825716425E+03  0.12509000000E+03 0.  0.
         25    1    3    3    0    0 -0.19653753295E+02 -0.47810194335E+01  0.57265581871E+02  0.13905388571E+03  0.12509000000E+03 0.  0.
         25    1    3    3    0    0  0.78652758271E+01 -0.45270577824E+02 -0.82015207937E+01  0.13351427198E+03  0.12509000000E+03 0.  0.
<mgrwt>
<rscale>  2 0.43786173E+03</rscale>
<asrwt>0</asrwt>
<pdfrwt beam="1">  1       21 0.28661416E-01 0.43786173E+03</pdfrwt>
<pdfrwt beam="2">  1       21 0.36165837E-01 0.43786173E+03</pdfrwt>
<totfact> 0.79987079E+04</totfact>
</mgrwt>
</event>
<event>
 6    0  0.1539497E-004  0.4229273E+03  0.7546771E-02  0.1036118E+00
         21   -1    0    0  502  501  0.00000000000E+00  0.00000000000E+00  0.22284755912E+03  0.22284755912E+03  0.00000000000E+00 0.  1.
         21   -1    0    0  501  502 -0.00000000000E+00 -0.00000000000E+00 -0.20066129738E+03  0.20066129738E+03  0.00000000000E+00 0.  1.
      99925    2    1    2    0    0 -0.47549542166E+02  0.79780325927E+01  0.77705220278E+02  0.27840726857E+03  0.26295987901E+03 0.  0.
         25    1    3    3    0    0 -0.78422415468E+01  0.41166071432E+01  0.76906122772E+02  0.14710712772E+03  0.12509000000E+03 0.  0.
         25    1    1    2    0    0  0.47549542166E+02 -0.79780325927E+01 -0.55518958533E+02  0.14510158793E+03  0.12509000000E+03 0.  0.
         25    1    3    3    0    0 -0.39707300619E+02  0.38614254495E+01  0.79909750676E+00  0.13130014084E+03  0.12509000000E+03 0.  0.
<mgrwt>
<rscale>  2 0.42292732E+03</rscale>
<asrwt>0</asrwt>
<pdfrwt beam="1">  1       21 0.32771700E-01 0.42292732E+03</pdfrwt>
<pdfrwt beam="2">  1       21 0.29509014E-01 0.42292732E+03</pdfrwt>
<totfact> 0.92392096E+04</totfact>
</mgrwt>
</event>
<event>
 6    0  0.1539497E-004  0.4159061E+03  0.7546771E-02  0.1038407E+00
         21   -1    0    0  502  501  0.00000000000E+00  0.00000000000E+00  0.15501729718E+03  0.15501729718E+03  0.00000000000E+00 0.  1.
         21   -1    0    0  501  502 -0.00000000000E+00 -0.00000000000E+00 -0.27896541799E+03  0.27896541799E+03  0.00000000000E+00 0.  1.
      99925    2    1    2    0    0 -0.13894260342E+02  0.33135317067E+02 -0.17346678804E+02  0.26574961723E+03  0.26273742041E+03 0.  0.
         25    1    1    2    0    0  0.13894260342E+02 -0.33135317067E+02 -0.10660144200E+03  0.16823309794E+03  0.12509000000E+03 0.  0.
         25    1    3    3    0    0 -0.25811413531E+01 -0.19222773911E+02  0.99025272011E+01  0.12697143566E+03  0.12509000000E+03 0.  0.
         25    1    3    3    0    0 -0.11313118989E+02  0.52358090978E+02 -0.27249206005E+02  0.13877818157E+03  0.12509000000E+03 0.  0.
<mgrwt>
<rscale>  2 0.41590607E+03</rscale>
<asrwt>0</asrwt>
<pdfrwt beam="1">  1       21 0.22796661E-01 0.41590607E+03</pdfrwt>
<pdfrwt beam="2">  1       21 0.41024326E-01 0.41590607E+03</pdfrwt>
<totfact> 0.96970400E+04</totfact>
</mgrwt>
</event>
<event>
 6    0  0.1539497E-004  0.3991074E+03  0.7546771E-02  0.1044089E+00
         21   -1    0    0  502  501  0.00000000000E+00  0.00000000000E+00  0.26892615891E+02  0.26892615891E+02  0.00000000000E+00 0. -1.
         21   -1    0    0  501  502 -0.00000000000E+00 -0.00000000000E+00 -0.14807660257E+04  0.14807660257E+04  0.00000000000E+00 0. -1.
      99925    2    1    2    0    0 -0.27262118829E+02  0.31945189943E+02 -0.92721881390E+03  0.96472559804E+03  0.26305328811E+03 0.  0.
         25    1    3    3    0    0  0.10144208528E+02  0.48907922348E+02 -0.46159915185E+03  0.48084943061E+03  0.12509000000E+03 0.  0.
         25    1    3    3    0    0 -0.37406327357E+02 -0.16962732405E+02 -0.46561966205E+03  0.48387616743E+03  0.12509000000E+03 0.  0.
         25    1    1    2    0    0  0.27262118829E+02 -0.31945189943E+02 -0.52665459594E+03  0.54293304358E+03  0.12509000000E+03 0.  0.
<mgrwt>
<rscale>  2 0.39910736E+03</rscale>
<asrwt>0</asrwt>
<pdfrwt beam="1">  1       21 0.39547957E-02 0.39910736E+03</pdfrwt>
<pdfrwt beam="2">  1       21 0.21775975E+00 0.39910736E+03</pdfrwt>
<totfact> 0.37375214E+04</totfact>
</mgrwt>
</event>
<event>
 6    0  0.1539497E-004  0.4573402E+03  0.7546771E-02  0.1025555E+00
         21   -1    0    0  502  501  0.00000000000E+00  0.00000000000E+00  0.92141103603E+03  0.92141103603E+03  0.00000000000E+00 0. -1.
         21   -1    0    0  501  502 -0.00000000000E+00 -0.00000000000E+00 -0.56749928310E+02  0.56749928310E+02  0.00000000000E+00 0. -1.
      99925    2    1    2    0    0  0.18536491353E+02 -0.11230990869E+03  0.50342923811E+03  0.57929621430E+03  0.26303229653E+03 0.  0.
         25    1    1    2    0    0 -0.18536491353E+02  0.11230990869E+03  0.36123186961E+03  0.39886475003E+03  0.12509000000E+03 0.  0.
         25    1    3    3    0    0  0.41117536012E+02 -0.33840227984E+02  0.21275452612E+03  0.25248328515E+03  0.12509000000E+03 0.  0.
         25    1    3    3    0    0 -0.22581044658E+02 -0.78469680702E+02  0.29067471199E+03  0.32681292915E+03  0.12509000000E+03 0.  0.
<mgrwt>
<rscale>  2 0.45734018E+03</rscale>
<asrwt>0</asrwt>
<pdfrwt beam="1">  1       21 0.13550161E+00 0.45734018E+03</pdfrwt>
<pdfrwt beam="2">  1       21 0.83455782E-02 0.45734018E+03</pdfrwt>
<totfact> 0.39297123E+04</totfact>
</mgrwt>
</event>
<event>
 6    0  0.1539497E-004  0.4319635E+03  0.7546771E-02  0.1033241E+00
         21   -1    0    0  502  501  0.00000000000E+00  0.00000000000E+00  0.97724901760E+03  0.97724901760E+03  0.00000000000E+00 0. -1.
         21   -1    0    0  501  502 -0.00000000000E+00 -0.00000000000E+00 -0.47734119342E+02  0.47734119342E+02  0.00000000000E+00 0. -1.
      99925    2    1    2    0    0  0.29458893058E+02  0.78659918326E+02  0.52289892340E+03  0.59134818881E+03  0.26308589317E+03 0.  0.
         25    1    3    3    0    0 -0.20632655265E+02  0.39906265006E+02  0.29840910604E+03  0.32667065849E+03  0.12509000000E+03 0.  0.
         25    1    3    3    0    0  0.50091548323E+02  0.38753653320E+02  0.22448981736E+03  0.26467753032E+03  0.12509000000E+03 0.  0.
         25    1    1    2    0    0 -0.29458893058E+02 -0.78659918326E+02  0.40661597486E+03  0.43363494814E+03  0.12509000000E+03 0.  0.
<mgrwt>
<rscale>  2 0.43196352E+03</rscale>
<asrwt>0</asrwt>
<pdfrwt beam="1">  1       21 0.14371308E+00 0.43196352E+03</pdfrwt>
<pdfrwt beam="2">  1       21 0.70197240E-02 0.43196352E+03</pdfrwt>
<totfact> 0.45930078E+04</totfact>
</mgrwt>
</event>
<event>
 6    0  0.1539497E-004  0.4481165E+03  0.7546771E-02  0.1028285E+00
         21   -1    0    0  502  501  0.00000000000E+00  0.00000000000E+00  0.18848432050E+04  0.18848432050E+04  0.00000000000E+00 0.  1.
         21   -1    0    0  501  502 -0.00000000000E+00 -0.00000000000E+00 -0.26634630072E+02  0.26634630072E+02  0.00000000000E+00 0.  1.
      99925    2    1    2    0    0  0.88435031301E+02  0.48789663342E+02  0.13281763613E+04  0.13575980272E+04  0.26233331978E+03 0.  0.
         25    1    1    2    0    0 -0.88435031301E+02 -0.48789663342E+02  0.53003221357E+03  0.55387980784E+03  0.12509000000E+03 0.  0.
         25    1    3    3    0    0  0.52818117076E+02  0.61430390480E+02  0.63980213593E+03  0.65693053484E+03  0.12509000000E+03 0.  0.
         25    1    3    3    0    0  0.35616914225E+02 -0.12640727138E+02  0.68837422541E+03  0.70066749238E+03  0.12509000000E+03 0.  0.
<mgrwt>
<rscale>  2 0.44811651E+03</rscale>
<asrwt>0</asrwt>
<pdfrwt beam="1">  1       21 0.27718273E+00 0.44811651E+03</pdfrwt>
<pdfrwt beam="2">  1       21 0.39168586E-02 0.44811651E+03</pdfrwt>
<totfact> 0.16049760E+04</totfact>
</mgrwt>
</event>
<event>
 6    0  0.1539497E-004  0.4043172E+03  0.7546771E-02  0.1042295E+00
         21   -1    0    0  502  501  0.00000000000E+00  0.00000000000E+00  0.10884224056E+04  0.10884224056E+04  0.00000000000E+00 0. -1.
         21   -1    0    0  501  502 -0.00000000000E+00 -0.00000000000E+00 -0.37548017182E+02  0.37548017182E+02  0.00000000000E+00 0. -1.
      99925    2    1    2    0    0 -0.23034148693E+02  0.46463613591E+02  0.74089624688E+03  0.78770514858E+03  0.26241705941E+03 0.  0.
         25    1    3    3    0    0 -0.14963115371E+02  0.16289201276E+02  0.25354047770E+03  0.28358334724E+03  0.12509000000E+03 0.  0.
         25    1    3    3    0    0 -0.80710333217E+01  0.30174412315E+02  0.48735576918E+03  0.50412180134E+03  0.12509000000E+03 0.  0.
         25    1    1    2    0    0  0.23034148693E+02 -0.46463613591E+02  0.30997814149E+03  0.33826527415E+03  0.12509000000E+03 0.  0.
<mgrwt>
<rscale>  2 0.40431722E+03</rscale>
<asrwt>0</asrwt>
<pdfrwt beam="1">  1       21 0.16006210E+00 0.40431722E+03</pdfrwt>
<pdfrwt beam="2">  1       21 0.55217679E-02 0.40431722E+03</pdfrwt>
<totfact> 0.52450701E+04</totfact>
</mgrwt>
</event>
<event>
 6    0  0.1539497E-004  0.6148351E+03  0.7546771E-02  0.9875097E-01
         21   -1    0    0  502  501  0.00000000000E+00  0.00000000000E+00  0.27093637905E+03  0.27093637905E+03  0.00000000000E+00 0. -1.
         21   -1    0    0  501  502 -0.00000000000E+00 -0.00000000000E+00 -0.34881086561E+03  0.34881086561E+03  0.00000000000E+00 0. -1.
      99925    2    1    2    0    0 -0.19332381092E+03  0.12722120256E+03 -0.23834775846E+02  0.35118230152E+03  0.26306193588E+03 0.  0.
         25    1    3    3    0    0 -0.64932852226E+02  0.89295132053E+02 -0.18684373101E+02  0.16788838496E+03  0.12509000000E+03 0.  0.
         25    1    3    3    0    0 -0.12839095870E+03  0.37926070503E+02 -0.51504027449E+01  0.18329391656E+03  0.12509000000E+03 0.  0.
         25    1    1    2    0    0  0.19332381092E+03 -0.12722120256E+03 -0.54039710710E+02  0.26856494314E+03  0.12509000000E+03 0.  0.
<mgrwt>
<rscale>  2 0.61483511E+03</rscale>
<asrwt>0</asrwt>
<pdfrwt beam="1">  1       21 0.39843585E-01 0.61483511E+03</pdfrwt>
<pdfrwt beam="2">  1       21 0.51295715E-01 0.61483511E+03</pdfrwt>
<totfact> 0.19131080E+04</totfact>
</mgrwt>
</event>
<event>
 6    0  0.1539497E-004  0.4302604E+03  0.7546771E-02  0.1033778E+00
         21   -1    0    0  502  501  0.00000000000E+00  0.00000000000E+00  0.12301779476E+03  0.12301779476E+03  0.00000000000E+00 0.  1.
         21   -1    0    0  501  502 -0.00000000000E+00 -0.00000000000E+00 -0.37621381784E+03  0.37621381784E+03  0.00000000000E+00 0.  1.
      99925    2    1    2    0    0  0.13997047733E+02  0.85237536674E+02 -0.18230814100E+03  0.33149981797E+03  0.26304850509E+03 0.  0.
         25    1    3    3    0    0  0.27183085829E+02  0.65601313980E+02 -0.12994682768E+03  0.19384565684E+03  0.12509000000E+03 0.  0.
         25    1    1    2    0    0 -0.13997047733E+02 -0.85237536674E+02 -0.70887882081E+02  0.16773179463E+03  0.12509000000E+03 0.  0.
         25    1    3    3    0    0 -0.13186038097E+02  0.19636222695E+02 -0.52361313319E+02  0.13765416112E+03  0.12509000000E+03 0.  0.
<mgrwt>
<rscale>  2 0.43026036E+03</rscale>
<asrwt>0</asrwt>
<pdfrwt beam="1">  1       21 0.18090852E-01 0.43026036E+03</pdfrwt>
<pdfrwt beam="2">  1       21 0.55325561E-01 0.43026036E+03</pdfrwt>
<totfact> 0.79890292E+04</totfact>
</mgrwt>
</event>
<event>
 6    0  0.1539497E-004  0.4418970E+03  0.7546771E-02  0.1030166E+00
         21   -1    0    0  502  501  0.00000000000E+00  0.00000000000E+00  0.50447834207E+02  0.50447834207E+02  0.00000000000E+00 0. -1.
         21   -1    0    0  501  502 -0.00000000000E+00 -0.00000000000E+00 -0.96769727680E+03  0.96769727680E+03  0.00000000000E+00 0. -1.
      99925    2    1    2    0    0 -0.15190048750E+01 -0.76409901315E+02 -0.73431434597E+03  0.78372340111E+03  0.26299055184E+03 0.  0.
         25    1    3    3    0    0  0.14467723901E+02 -0.14144496432E+02 -0.43377074998E+03  0.45190038001E+03  0.12509000000E+03 0.  0.
         25    1    1    2    0    0  0.15190048750E+01  0.76409901315E+02 -0.18293509663E+03  0.23442170990E+03  0.12509000000E+03 0.  0.
         25    1    3    3    0    0 -0.15986728776E+02 -0.62265404883E+02 -0.30054359598E+03  0.33182302109E+03  0.12509000000E+03 0.  0.
<mgrwt>
<rscale>  2 0.44189696E+03</rscale>
<asrwt>0</asrwt>
<pdfrwt beam="1">  1       21 0.74187994E-02 0.44189696E+03</pdfrwt>
<pdfrwt beam="2">  1       21 0.14230842E+00 0.44189696E+03</pdfrwt>
<totfact> 0.42669441E+04</totfact>
</mgrwt>
</event>
<event>
 6    0  0.1539497E-004  0.4030580E+03  0.7546771E-02  0.1042726E+00
         21   -1    0    0  502  501  0.00000000000E+00  0.00000000000E+00  0.98684108073E+03  0.98684108073E+03  0.00000000000E+00 0. -1.
         21   -1    0    0  501  502 -0.00000000000E+00 -0.00000000000E+00 -0.41155491437E+02  0.41155491437E+02  0.00000000000E+00 0. -1.
      99925    2    1    2    0    0  0.23502990744E+02  0.58406584195E+00  0.74466810457E+03  0.79007164919E+03  0.26292564194E+03 0.  0.
         25    1    1    2    0    0 -0.23502990744E+02 -0.58406584195E+00  0.20101748472E+03  0.23792492297E+03  0.12509000000E+03 0.  0.
         25    1    3    3    0    0  0.22029384096E+02 -0.15974118400E+02  0.48128660222E+03  0.49802085077E+03  0.12509000000E+03 0.  0.
         25    1    3    3    0    0  0.14736066480E+01  0.16558184242E+02  0.26338150235E+03  0.29205079843E+03  0.12509000000E+03 0.  0.
<mgrwt>
<rscale>  2 0.40305796E+03</rscale>
<asrwt>0</asrwt>
<pdfrwt beam="1">  1       21 0.14512367E+00 0.40305796E+03</pdfrwt>
<pdfrwt beam="2">  1       21 0.60522788E-02 0.40305796E+03</pdfrwt>
<totfact> 0.58434488E+04</totfact>
</mgrwt>
</event>
<event>
 6    0  0.1539497E-004  0.4090038E+03  0.7546771E-02  0.1040706E+00
         21   -1    0    0  502  501  0.00000000000E+00  0.00000000000E+00  0.17066968608E+03  0.17066968608E+03  0.00000000000E+00 0. -1.
         21   -1    0    0  501  502 -0.00000000000E+00 -0.00000000000E+00 -0.24504070684E+03  0.24504070684E+03  0.00000000000E+00 0. -1.
      99925    2    1    2    0    0  0.12991845192E+02 -0.14939352639E+02 -0.10692880564E+03  0.28494537560E+03  0.26337829314E+03 0.  0.
         25    1    3    3    0    0  0.37268129297E+02 -0.23125247373E+02 -0.30113753991E+02  0.13593394281E+03  0.12509000000E+03 0.  0.
         25    1    1    2    0    0 -0.12991845192E+02  0.14939352639E+02  0.32557784884E+02  0.13076501732E+03  0.12509000000E+03 0.  0.
         25    1    3    3    0    0 -0.24276284105E+02  0.81858947339E+01 -0.76815051652E+02  0.14901143279E+03  0.12509000000E+03 0.  0.
<mgrwt>
<rscale>  2 0.40900377E+03</rscale>
<asrwt>0</asrwt>
<pdfrwt beam="1">  1       21 0.25098483E-01 0.40900377E+03</pdfrwt>
<pdfrwt beam="2">  1       21 0.36035398E-01 0.40900377E+03</pdfrwt>
<totfact> 0.10510384E+05</totfact>
</mgrwt>
</event>
<event>
 6    0  0.1539497E-004  0.4053384E+03  0.7546771E-02  0.1041947E+00
         21   -1    0    0  502  501  0.00000000000E+00  0.00000000000E+00  0.30161902995E+03  0.30161902995E+03  0.00000000000E+00 0. -1.
         21   -1    0    0  501  502 -0.00000000000E+00 -0.00000000000E+00 -0.13618106444E+03  0.13618106444E+03  0.00000000000E+00 0. -1.
      99925    2    1    2    0    0 -0.45716180886E+02  0.30000712667E+02  0.10835045847E+03  0.28982542252E+03  0.26318993471E+03 0.  0.
         25    1    3    3    0    0 -0.23316430727E+02 -0.23905647425E+02  0.38233346460E+02  0.13499789925E+03  0.12509000000E+03 0.  0.
         25    1    3    3    0    0 -0.22399750159E+02  0.53906360092E+02  0.70117112007E+02  0.15482752327E+03  0.12509000000E+03 0.  0.
         25    1    1    2    0    0  0.45716180886E+02 -0.30000712667E+02  0.57087507043E+02  0.14797467187E+03  0.12509000000E+03 0.  0.
<mgrwt>
<rscale>  2 0.40533838E+03</rscale>
<asrwt>0</asrwt>
<pdfrwt beam="1">  1       21 0.44355740E-01 0.40533838E+03</pdfrwt>
<pdfrwt beam="2">  1       21 0.20026627E-01 0.40533838E+03</pdfrwt>
<totfact> 0.10587088E+05</totfact>
</mgrwt>
</event>
<event>
 6    0  0.1539497E-004  0.4146708E+03  0.7546771E-02  0.1038815E+00
         21   -1    0    0  502  501  0.00000000000E+00  0.00000000000E+00  0.26404351054E+02  0.26404351054E+02  0.00000000000E+00 0. -1.
         21   -1    0    0  501  502 -0.00000000000E+00 -0.00000000000E+00 -0.16280636578E+04  0.16280636578E+04  0.00000000000E+00 0. -1.
      99925    2    1    2    0    0 -0.33075164723E+02  0.39234674144E+02 -0.12337086166E+04  0.12624622122E+04  0.26294592643E+03 0.  0.
         25    1    3    3    0    0 -0.17863883822E+01  0.13801546199E+02 -0.78044584228E+03  0.79052950274E+03  0.12509000000E+03 0.  0.
         25    1    3    3    0    0 -0.31288776340E+02  0.25433127945E+02 -0.45326277436E+03  0.47193270944E+03  0.12509000000E+03 0.  0.
         25    1    1    2    0    0  0.33075164723E+02 -0.39234674144E+02 -0.36795069006E+03  0.39200579663E+03  0.12509000000E+03 0.  0.
<mgrwt>
<rscale>  2 0.41467078E+03</rscale>
<asrwt>0</asrwt>
<pdfrwt beam="1">  1       21 0.38829912E-02 0.41467078E+03</pdfrwt>
<pdfrwt beam="2">  1       21 0.23942122E+00 0.41467078E+03</pdfrwt>
<totfact> 0.28027634E+04</totfact>
</mgrwt>
</event>
<event>
 6    0  0.1539497E-004  0.4465000E+03  0.7546771E-02  0.1028771E+00
         21   -1    0    0  502  501  0.00000000000E+00  0.00000000000E+00  0.13087724156E+03  0.13087724156E+03  0.00000000000E+00 0.  1.
         21   -1    0    0  501  502 -0.00000000000E+00 -0.00000000000E+00 -0.38081914611E+03  0.38081914611E+03  0.00000000000E+00 0.  1.
      99925    2    1    2    0    0 -0.70338160834E+01  0.66808074299E+02 -0.66195011474E+02  0.27948264524E+03  0.26308929299E+03 0.  0.
         25    1    3    3    0    0 -0.13237727341E+02  0.16300089602E+02 -0.69031147711E+02  0.14440823315E+03  0.12509000000E+03 0.  0.
         25    1    1    2    0    0  0.70338160834E+01 -0.66808074299E+02 -0.18374689308E+03  0.23221374244E+03  0.12509000000E+03 0.  0.
         25    1    3    3    0    0  0.62039112573E+01  0.50507984697E+02  0.28361362363E+01  0.13507441209E+03  0.12509000000E+03 0.  0.
<mgrwt>
<rscale>  2 0.44649999E+03</rscale>
<asrwt>0</asrwt>
<pdfrwt beam="1">  1       21 0.19246653E-01 0.44649999E+03</pdfrwt>
<pdfrwt beam="2">  1       21 0.56002816E-01 0.44649999E+03</pdfrwt>
<totfact> 0.68993654E+04</totfact>
</mgrwt>
</event>
<event>
 6    0  0.1539497E-004  0.4796627E+03  0.7546771E-02  0.1019228E+00
         21   -1    0    0  502  501  0.00000000000E+00  0.00000000000E+00  0.87001984968E+03  0.87001984968E+03  0.00000000000E+00 0. -1.
         21   -1    0    0  501  502 -0.00000000000E+00 -0.00000000000E+00 -0.66112368565E+02  0.66112368565E+02  0.00000000000E+00 0. -1.
      99925    2    1    2    0    0 -0.30750893153E+01  0.11867763511E+03  0.37019330961E+03  0.46938889701E+03  0.26303804461E+03 0.  0.
         25    1    3    3    0    0  0.11077589791E+02  0.82520004137E+02  0.24964553900E+03  0.29138062276E+03  0.12509000000E+03 0.  0.
         25    1    1    2    0    0  0.30750893153E+01 -0.11867763511E+03  0.43371417151E+03  0.46674332123E+03  0.12509000000E+03 0.  0.
         25    1    3    3    0    0 -0.14152679107E+02  0.36157630969E+02  0.12054777060E+03  0.17800827425E+03  0.12509000000E+03 0.  0.
<mgrwt>
<rscale>  2 0.47966269E+03</rscale>
<asrwt>0</asrwt>
<pdfrwt beam="1">  1       21 0.12794409E+00 0.47966269E+03</pdfrwt>
<pdfrwt beam="2">  1       21 0.97224077E-02 0.47966269E+03</pdfrwt>
<totfact> 0.34542792E+04</totfact>
</mgrwt>
</event>
<event>
 6    0  0.1539497E-004  0.3899711E+03  0.7546771E-02  0.1047309E+00
         21   -1    0    0  502  501  0.00000000000E+00  0.00000000000E+00  0.84750200350E+02  0.84750200350E+02  0.00000000000E+00 0.  1.
         21   -1    0    0  501  502 -0.00000000000E+00 -0.00000000000E+00 -0.44860496104E+03  0.44860496104E+03  0.00000000000E+00 0.  1.
      99925    2    1    2    0    0 -0.44145350270E+01 -0.17575176269E+02 -0.24098386207E+03  0.35707940932E+03  0.26287660193E+03 0.  0.
         25    1    3    3    0    0  0.49068524645E+01  0.16242779740E+01 -0.67788160725E+02  0.14237084784E+03  0.12509000000E+03 0.  0.
         25    1    1    2    0    0  0.44145350270E+01  0.17575176269E+02 -0.12287089861E+03  0.17627575207E+03  0.12509000000E+03 0.  0.
         25    1    3    3    0    0 -0.93213874915E+01 -0.19199454243E+02 -0.17319570135E+03  0.21470856148E+03  0.12509000000E+03 0.  0.
<mgrwt>
<rscale>  2 0.38997108E+03</rscale>
<asrwt>0</asrwt>
<pdfrwt beam="1">  1       21 0.12463265E-01 0.38997108E+03</pdfrwt>
<pdfrwt beam="2">  1       21 0.65971318E-01 0.38997108E+03</pdfrwt>
<totfact> 0.10926843E+05</totfact>
</mgrwt>
</event>
<event>
 6    0  0.1539497E-004  0.4103074E+03  0.7546771E-02  0.1040268E+00
         21   -1    0    0  502  501  0.00000000000E+00  0.00000000000E+00  0.36711528412E+03  0.36711528412E+03  0.00000000000E+00 0. -1.
         21   -1    0    0  501  502 -0.00000000000E+00 -0.00000000000E+00 -0.11464527150E+03  0.11464527150E+03  0.00000000000E+00 0. -1.
      99925    2    1    2    0    0  0.15458613892E+02  0.18930945274E+02  0.23420652723E+03  0.35300337162E+03  0.26298542459E+03 0.  0.
         25    1    3    3    0    0 -0.57326979179E+01 -0.26965256164E+02  0.13023604350E+03  0.18267162887E+03  0.12509000000E+03 0.  0.
         25    1    3    3    0    0  0.21191311810E+02  0.45896201438E+02  0.10397048372E+03  0.17033174275E+03  0.12509000000E+03 0.  0.
         25    1    1    2    0    0 -0.15458613892E+02 -0.18930945274E+02  0.18263485398E+02  0.12875718400E+03  0.12509000000E+03 0.  0.
<mgrwt>
<rscale>  2 0.41030736E+03</rscale>
<asrwt>0</asrwt>
<pdfrwt beam="1">  1       21 0.53987541E-01 0.41030736E+03</pdfrwt>
<pdfrwt beam="2">  1       21 0.16859599E-01 0.41030736E+03</pdfrwt>
<totfact> 0.96515395E+04</totfact>
</mgrwt>
</event>
<event>
 6    0  0.1539497E-004  0.4420651E+03  0.7546771E-02  0.1030115E+00
         21   -1    0    0  502  501  0.00000000000E+00  0.00000000000E+00  0.53629221439E+02  0.53629221439E+02  0.00000000000E+00 0.  1.
         21   -1    0    0  501  502 -0.00000000000E+00 -0.00000000000E+00 -0.91098464263E+03  0.91098464263E+03  0.00000000000E+00 0.  1.
      99925    2    1    2    0    0 -0.11639734540E+02 -0.77829090707E+02 -0.68261814544E+03  0.73576134733E+03  0.26302923215E+03 0.  0.
         25    1    3    3    0    0  0.10546704316E+02 -0.32950965097E+02 -0.23688445781E+03  0.27010878091E+03  0.12509000000E+03 0.  0.
         25    1    3    3    0    0 -0.22186438856E+02 -0.44878125610E+02 -0.44573368763E+03  0.46565256642E+03  0.12509000000E+03 0.  0.
         25    1    1    2    0    0  0.11639734540E+02  0.77829090707E+02 -0.17473727576E+03  0.22885251674E+03  0.12509000000E+03 0.  0.
<mgrwt>
<rscale>  2 0.44206514E+03</rscale>
<asrwt>0</asrwt>
<pdfrwt beam="1">  1       21 0.78866505E-02 0.44206514E+03</pdfrwt>
<pdfrwt beam="2">  1       21 0.13396832E+00 0.44206514E+03</pdfrwt>
<totfact> 0.44929127E+04</totfact>
</mgrwt>
</event>
<event>
 6    0  0.1539497E-004  0.4619385E+03  0.7546771E-02  0.1024221E+00
         21   -1    0    0  502  501  0.00000000000E+00  0.00000000000E+00  0.27754897181E+02  0.27754897181E+02  0.00000000000E+00 0. -1.
         21   -1    0    0  501  502 -0.00000000000E+00 -0.00000000000E+00 -0.19220675856E+04  0.19220675856E+04  0.00000000000E+00 0. -1.
      99925    2    1    2    0    0  0.83165456042E+02 -0.85107020349E+01 -0.82290285202E+03  0.86790036416E+03  0.26285549855E+03 0.  0.
         25    1    3    3    0    0  0.49428147749E+01  0.14342286199E+02 -0.35000059474E+03  0.37199201202E+03  0.12509000000E+03 0.  0.
         25    1    3    3    0    0  0.78222641267E+02 -0.22852988234E+02 -0.47290225728E+03  0.49590835213E+03  0.12509000000E+03 0.  0.
         25    1    1    2    0    0 -0.83165456042E+02  0.85107020349E+01 -0.10714098364E+04  0.10819221186E+04  0.12509000000E+03 0.  0.
<mgrwt>
<rscale>  2 0.46193847E+03</rscale>
<asrwt>0</asrwt>
<pdfrwt beam="1">  1       21 0.40816030E-02 0.46193847E+03</pdfrwt>
<pdfrwt beam="2">  1       21 0.28265697E+00 0.46193847E+03</pdfrwt>
<totfact> 0.13788977E+04</totfact>
</mgrwt>
</event>
<event>
 6    0  0.1539497E-004  0.4094666E+03  0.7546771E-02  0.1040550E+00
         21   -1    0    0  502  501  0.00000000000E+00  0.00000000000E+00  0.12863491744E+04  0.12863491744E+04  0.00000000000E+00 0.  1.
         21   -1    0    0  501  502 -0.00000000000E+00 -0.00000000000E+00 -0.32585026942E+02  0.32585026942E+02  0.00000000000E+00 0.  1.
      99925    2    1    2    0    0 -0.35214064077E+02 -0.75762339626E+01  0.66768246646E+03  0.71857041618E+03  0.26314660812E+03 0.  0.
         25    1    3    3    0    0 -0.17043037393E+02  0.35698816883E+02  0.30297616710E+03  0.33016198537E+03  0.12509000000E+03 0.  0.
         25    1    1    2    0    0  0.35214064077E+02  0.75762339626E+01  0.58608168102E+03  0.60036378518E+03  0.12509000000E+03 0.  0.
         25    1    3    3    0    0 -0.18171026684E+02 -0.43275050845E+02  0.36470629936E+03  0.38840843082E+03  0.12509000000E+03 0.  0.
<mgrwt>
<rscale>  2 0.40946659E+03</rscale>
<asrwt>0</asrwt>
<pdfrwt beam="1">  1       21 0.18916896E+00 0.40946659E+03</pdfrwt>
<pdfrwt beam="2">  1       21 0.47919166E-02 0.40946659E+03</pdfrwt>
<totfact> 0.41401450E+04</totfact>
</mgrwt>
</event>
<event>
 6    0  0.1539497E-004  0.4846426E+03  0.7546771E-02  0.1017867E+00
         21   -1    0    0  502  501  0.00000000000E+00  0.00000000000E+00  0.67693257808E+02  0.67693257808E+02  0.00000000000E+00 0.  1.
         21   -1    0    0  501  502 -0.00000000000E+00 -0.00000000000E+00 -0.86743668260E+03  0.86743668260E+03  0.00000000000E+00 0.  1.
      99925    2    1    2    0    0  0.90163013187E+02 -0.87391041353E+02 -0.60592799026E+03  0.67249236918E+03  0.26330722393E+03 0.  0.
         25    1    3    3    0    0  0.75291192998E+02 -0.77645546684E+02 -0.34186586483E+03  0.37975962437E+03  0.12509000000E+03 0.  0.
         25    1    1    2    0    0 -0.90163013187E+02  0.87391041353E+02 -0.19381543453E+03  0.26263757122E+03  0.12509000000E+03 0.  0.
         25    1    3    3    0    0  0.14871820190E+02 -0.97454946682E+01 -0.26406212543E+03  0.29273274481E+03  0.12509000000E+03 0.  0.
<mgrwt>
<rscale>  2 0.48464261E+03</rscale>
<asrwt>0</asrwt>
<pdfrwt beam="1">  1       21 0.99548912E-02 0.48464261E+03</pdfrwt>
<pdfrwt beam="2">  1       21 0.12756421E+00 0.48464261E+03</pdfrwt>
<totfact> 0.33320468E+04</totfact>
</mgrwt>
</event>
<event>
 6    0  0.1539497E-004  0.3972978E+03  0.7546771E-02  0.1044719E+00
         21   -1    0    0  502  501  0.00000000000E+00  0.00000000000E+00  0.48201861887E+02  0.48201861887E+02  0.00000000000E+00 0.  1.
         21   -1    0    0  501  502 -0.00000000000E+00 -0.00000000000E+00 -0.81866911651E+03  0.81866911651E+03  0.00000000000E+00 0.  1.
      99925    2    1    2    0    0 -0.59106808727E+01 -0.81662592891E+01 -0.43333636221E+03  0.50714000856E+03  0.26326595209E+03 0.  0.
         25    1    3    3    0    0 -0.24873157813E+02  0.30047308548E+01 -0.15186138565E+03  0.19833580347E+03  0.12509000000E+03 0.  0.
         25    1    1    2    0    0  0.59106808727E+01  0.81662592891E+01 -0.33713089242E+03  0.35973096984E+03  0.12509000000E+03 0.  0.
         25    1    3    3    0    0  0.18962476940E+02 -0.11170990144E+02 -0.28147497656E+03  0.30880420509E+03  0.12509000000E+03 0.  0.
<mgrwt>
<rscale>  2 0.39729775E+03</rscale>
<asrwt>0</asrwt>
<pdfrwt beam="1">  1       21 0.70885092E-02 0.39729775E+03</pdfrwt>
<pdfrwt beam="2">  1       21 0.12039251E+00 0.39729775E+03</pdfrwt>
<totfact> 0.72208178E+04</totfact>
</mgrwt>
</event>
<event>
 6    0  0.1539497E-004  0.4433483E+03  0.7546771E-02  0.1029724E+00
         21   -1    0    0  502  501  0.00000000000E+00  0.00000000000E+00  0.11591384709E+03  0.11591384709E+03  0.00000000000E+00 0. -1.
         21   -1    0    0  501  502 -0.00000000000E+00 -0.00000000000E+00 -0.42393067826E+03  0.42393067826E+03  0.00000000000E+00 0. -1.
      99925    2    1    2    0    0  0.60811735734E+02 -0.73744498728E+01 -0.29514256016E+03  0.39996706230E+03  0.26289174654E+03 0.  0.
         25    1    1    2    0    0 -0.60811735734E+02  0.73744498728E+01 -0.12874271017E+02  0.13987746305E+03  0.12509000000E+03 0.  0.
         25    1    3    3    0    0  0.26393599777E+01 -0.21710411712E+02 -0.17658071601E+03  0.21750072543E+03  0.12509000000E+03 0.  0.
         25    1    3    3    0    0  0.58172375756E+02  0.14335961840E+02 -0.11856184415E+03  0.18246633687E+03  0.12509000000E+03 0.  0.
<mgrwt>
<rscale>  2 0.44334833E+03</rscale>
<asrwt>0</asrwt>
<pdfrwt beam="1">  1       21 0.17046154E-01 0.44334833E+03</pdfrwt>
<pdfrwt beam="2">  1       21 0.62342748E-01 0.44334833E+03</pdfrwt>
<totfact> 0.68657865E+04</totfact>
</mgrwt>
</event>
<event>
 5    0  0.1539497E-004  0.5086029E+03  0.7546771E-02  0.1011558E+00
         21   -1    0    0  502  501  0.00000000000E+00  0.00000000000E+00  0.95497816107E+02  0.95497816107E+02  0.00000000000E+00 0.  1.
         21   -1    0    0  501  502 -0.00000000000E+00 -0.00000000000E+00 -0.67718013243E+03  0.67718013243E+03  0.00000000000E+00 0.  1.
         25    1    1    2    0    0 -0.14670520097E+02 -0.55740621056E+02 -0.11557333989E+03  0.17979695767E+03  0.12509000000E+03 0.  0.
         25    1    1    2    0    0  0.51537040349E+02 -0.35553504806E+02 -0.52014168684E+02  0.14924175045E+03  0.12509000000E+03 0.  0.
         25    1    1    2    0    0 -0.36866520252E+02  0.91294125863E+02 -0.41409480776E+03  0.44363924042E+03  0.12509000000E+03 0.  0.
<mgrwt>
<rscale>  2 0.50860289E+03</rscale>
<asrwt>0</asrwt>
<pdfrwt beam="1">  1       21 0.14043797E-01 0.50860289E+03</pdfrwt>
<pdfrwt beam="2">  1       21 0.99585312E-01 0.50860289E+03</pdfrwt>
<totfact> 0.32915124E+04</totfact>
</mgrwt>
</event>
<event>
 6    0  0.1539497E-004  0.3962121E+03  0.7546771E-02  0.1045099E+00
         21   -1    0    0  502  501  0.00000000000E+00  0.00000000000E+00  0.96719492401E+03  0.96719492401E+03  0.00000000000E+00 0.  1.
         21   -1    0    0  501  502 -0.00000000000E+00 -0.00000000000E+00 -0.40577151816E+02  0.40577151816E+02  0.00000000000E+00 0.  1.
      99925    2    1    2    0    0  0.43493096278E+01  0.10940803923E+02  0.71225284376E+03  0.75929984735E+03  0.26285647614E+03 0.  0.
         25    1    1    2    0    0 -0.43493096278E+01 -0.10940803923E+02  0.21436492843E+03  0.24847222848E+03  0.12509000000E+03 0.  0.
         25    1    3    3    0    0 -0.31818279181E+02  0.24902599192E+02  0.38459257354E+03  0.40643756970E+03  0.12509000000E+03 0.  0.
         25    1    3    3    0    0  0.36167588809E+02 -0.13961795269E+02  0.32766027022E+03  0.35286227765E+03  0.12509000000E+03 0.  0.
<mgrwt>
<rscale>  2 0.39621214E+03</rscale>
<asrwt>0</asrwt>
<pdfrwt beam="1">  1       21 0.14223453E+00 0.39621214E+03</pdfrwt>
<pdfrwt beam="2">  1       21 0.59672288E-02 0.39621214E+03</pdfrwt>
<totfact> 0.63313244E+04</totfact>
</mgrwt>
</event>
<event>
 6    0  0.1539497E-004  0.4090258E+03  0.7546771E-02  0.1040698E+00
         21   -1    0    0  502  501  0.00000000000E+00  0.00000000000E+00  0.10327224452E+03  0.10327224452E+03  0.00000000000E+00 0. -1.
         21   -1    0    0  501  502 -0.00000000000E+00 -0.00000000000E+00 -0.40500262897E+03  0.40500262897E+03  0.00000000000E+00 0. -1.
      99925    2    1    2    0    0 -0.49026202642E+02  0.35881605905E+02 -0.19923747396E+03  0.33552255660E+03  0.26303755772E+03 0.  0.
         25    1    3    3    0    0 -0.98954166877E+01 -0.20298432662E+02 -0.86701320099E+02  0.15386543682E+03  0.12509000000E+03 0.  0.
         25    1    1    2    0    0  0.49026202642E+02 -0.35881605905E+02 -0.10249291049E+03  0.17275231688E+03  0.12509000000E+03 0.  0.
         25    1    3    3    0    0 -0.39130785955E+02  0.56180038567E+02 -0.11253615386E+03  0.18165711979E+03  0.12509000000E+03 0.  0.
<mgrwt>
<rscale>  2 0.40902582E+03</rscale>
<asrwt>0</asrwt>
<pdfrwt beam="1">  1       21 0.15187095E-01 0.40902582E+03</pdfrwt>
<pdfrwt beam="2">  1       21 0.59559209E-01 0.40902582E+03</pdfrwt>
<totfact> 0.94795557E+04</totfact>
</mgrwt>
</event>
<event>
 6    0  0.1539497E-004  0.4075451E+03  0.7546771E-02  0.1041198E+00
         21   -1    0    0  502  501  0.00000000000E+00  0.00000000000E+00  0.48284015048E+02  0.48284015048E+02  0.00000000000E+00 0.  1.
         21   -1    0    0  501  502 -0.00000000000E+00 -0.00000000000E+00 -0.85997919880E+03  0.85997919880E+03  0.00000000000E+00 0.  1.
      99925    2    1    2    0    0 -0.86539569016E+00 -0.44578815290E+02 -0.62116180725E+03  0.67601658773E+03  0.26299889052E+03 0.  0.
         25    1    1    2    0    0  0.86539569016E+00  0.44578815290E+02 -0.19053337650E+03  0.23224662612E+03  0.12509000000E+03 0.  0.
         25    1    3    3    0    0  0.25820025294E+02 -0.49872019677E+02 -0.35828104605E+03  0.38362313292E+03  0.12509000000E+03 0.  0.
         25    1    3    3    0    0 -0.26685420984E+02  0.52932043873E+01 -0.26288076120E+03  0.29239345481E+03  0.12509000000E+03 0.  0.
<mgrwt>
<rscale>  2 0.40754508E+03</rscale>
<asrwt>0</asrwt>
<pdfrwt beam="1">  1       21 0.71005903E-02 0.40754508E+03</pdfrwt>
<pdfrwt beam="2">  1       21 0.12646753E+00 0.40754508E+03</pdfrwt>
<totfact> 0.63316832E+04</totfact>
</mgrwt>
</event>
<event>
 6    0  0.1539497E-004  0.4268080E+03  0.7546771E-02  0.1034873E+00
         21   -1    0    0  502  501  0.00000000000E+00  0.00000000000E+00  0.11299424675E+03  0.11299424675E+03  0.00000000000E+00 0.  1.
         21   -1    0    0  501  502 -0.00000000000E+00 -0.00000000000E+00 -0.40304063003E+03  0.40304063003E+03  0.00000000000E+00 0.  1.
      99925    2    1    2    0    0 -0.62982233531E+02 -0.39453049324E+02 -0.23496720251E+03  0.36045682853E+03  0.26305177083E+03 0.  0.
         25    1    3    3    0    0 -0.65240422988E+02 -0.42978699283E+01 -0.99213336331E+02  0.17252703754E+03  0.12509000000E+03 0.  0.
         25    1    3    3    0    0  0.22581894572E+01 -0.35155179396E+02 -0.13575386618E+03  0.18792979098E+03  0.12509000000E+03 0.  0.
         25    1    1    2    0    0  0.62982233531E+02  0.39453049324E+02 -0.55079180779E+02  0.15557804825E+03  0.12509000000E+03 0.  0.
<mgrwt>
<rscale>  2 0.42680802E+03</rscale>
<asrwt>0</asrwt>
<pdfrwt beam="1">  1       21 0.16616801E-01 0.42680802E+03</pdfrwt>
<pdfrwt beam="2">  1       21 0.59270680E-01 0.42680802E+03</pdfrwt>
<totfact> 0.80738795E+04</totfact>
</mgrwt>
</event>
<event>
 6    0  0.1539497E-004  0.4141708E+03  0.7546771E-02  0.1038980E+00
         21   -1    0    0  502  501  0.00000000000E+00  0.00000000000E+00  0.38771144004E+02  0.38771144004E+02  0.00000000000E+00 0. -1.
         21   -1    0    0  501  502 -0.00000000000E+00 -0.00000000000E+00 -0.11060896653E+04  0.11060896653E+04  0.00000000000E+00 0. -1.
      99925    2    1    2    0    0 -0.18371357374E+02  0.64916443972E+02 -0.67120389632E+03  0.72402122504E+03  0.26294564532E+03 0.  0.
         25    1    1    2    0    0  0.18371357374E+02 -0.64916443972E+02 -0.39611462495E+03  0.42083958425E+03  0.12509000000E+03 0.  0.
         25    1    3    3    0    0 -0.32534955410E+02  0.61735684931E+02 -0.40369423244E+03  0.42835307810E+03  0.12509000000E+03 0.  0.
         25    1    3    3    0    0  0.14163598036E+02  0.31807590417E+01 -0.26750966389E+03  0.29566814693E+03  0.12509000000E+03 0.  0.
<mgrwt>
<rscale>  2 0.41417079E+03</rscale>
<asrwt>0</asrwt>
<pdfrwt beam="1">  1       21 0.57016392E-02 0.41417079E+03</pdfrwt>
<pdfrwt beam="2">  1       21 0.16266023E+00 0.41417079E+03</pdfrwt>
<totfact> 0.47307522E+04</totfact>
</mgrwt>
</event>
<event>
 6    0  0.1539497E-004  0.4788361E+03  0.7546771E-02  0.1019456E+00
         21   -1    0    0  502  501  0.00000000000E+00  0.00000000000E+00  0.77100726203E+02  0.77100726203E+02  0.00000000000E+00 0.  1.
         21   -1    0    0  501  502 -0.00000000000E+00 -0.00000000000E+00 -0.74345593106E+03  0.74345593106E+03  0.00000000000E+00 0.  1.
      99925    2    1    2    0    0 -0.28617928996E+02 -0.10785573639E+03 -0.28311431745E+03  0.40225899816E+03  0.26307173759E+03 0.  0.
         25    1    3    3    0    0  0.93666977404E+01 -0.55690351108E+02 -0.18641533641E+03  0.23148938633E+03  0.12509000000E+03 0.  0.
         25    1    1    2    0    0  0.28617928996E+02  0.10785573639E+03 -0.38324088741E+03  0.41829765911E+03  0.12509000000E+03 0.  0.
         25    1    3    3    0    0 -0.37984626737E+02 -0.52165385286E+02 -0.96698981037E+02  0.17076961183E+03  0.12509000000E+03 0.  0.
<mgrwt>
<rscale>  2 0.47883606E+03</rscale>
<asrwt>0</asrwt>
<pdfrwt beam="1">  1       21 0.11338342E-01 0.47883606E+03</pdfrwt>
<pdfrwt beam="2">  1       21 0.10933176E+00 0.47883606E+03</pdfrwt>
<totfact> 0.38970191E+04</totfact>
</mgrwt>
</event>
<event>
 6    0  0.1539497E-004  0.4225900E+03  0.7546771E-02  0.1036227E+00
         21   -1    0    0  502  501  0.00000000000E+00  0.00000000000E+00  0.10442911061E+03  0.10442911061E+03  0.00000000000E+00 0.  1.
         21   -1    0    0  501  502 -0.00000000000E+00 -0.00000000000E+00 -0.42752042168E+03  0.42752042168E+03  0.00000000000E+00 0.  1.
      99925    2    1    2    0    0 -0.72978834269E+02  0.92750536599E+01 -0.17338254230E+03  0.32344974711E+03  0.26295683307E+03 0.  0.
         25    1    3    3    0    0 -0.41727397229E+02 -0.31741213121E+02 -0.10690680579E+03  0.17269989437E+03  0.12509000000E+03 0.  0.
         25    1    1    2    0    0  0.72978834269E+02 -0.92750536599E+01 -0.14970876877E+03  0.20849978518E+03  0.12509000000E+03 0.  0.
         25    1    3    3    0    0 -0.31251437040E+02  0.41016266781E+02 -0.66475736510E+02  0.15074985274E+03  0.12509000000E+03 0.  0.
<mgrwt>
<rscale>  2 0.42259000E+03</rscale>
<asrwt>0</asrwt>
<pdfrwt beam="1">  1       21 0.15357222E-01 0.42259000E+03</pdfrwt>
<pdfrwt beam="2">  1       21 0.62870650E-01 0.42259000E+03</pdfrwt>
<totfact> 0.82225095E+04</totfact>
</mgrwt>
</event>
<event>
 6    0  0.1539497E-004  0.4323102E+03  0.7546771E-02  0.1033133E+00
         21   -1    0    0  502  501  0.00000000000E+00  0.00000000000E+00  0.11474736106E+03  0.11474736106E+03  0.00000000000E+00 0. -1.
         21   -1    0    0  501  502 -0.00000000000E+00 -0.00000000000E+00 -0.40718174750E+03  0.40718174750E+03  0.00000000000E+00 0. -1.
      99925    2    1    2    0    0 -0.79348424679E+02  0.14677682582E+02 -0.13953658988E+03  0.30853545553E+03  0.26308185140E+03 0.  0.
         25    1    1    2    0    0  0.79348424679E+02 -0.14677682582E+02 -0.15289779655E+03  0.21339365303E+03  0.12509000000E+03 0.  0.
         25    1    3    3    0    0 -0.51391694509E+02  0.13397405013E+02 -0.11500049429E+03  0.17802589282E+03  0.12509000000E+03 0.  0.
         25    1    3    3    0    0 -0.27956730170E+02  0.12802775692E+01 -0.24536095589E+02  0.13050956271E+03  0.12509000000E+03 0.  0.
<mgrwt>
<rscale>  2 0.43231022E+03</rscale>
<asrwt>0</asrwt>
<pdfrwt beam="1">  1       21 0.16874612E-01 0.43231022E+03</pdfrwt>
<pdfrwt beam="2">  1       21 0.59879669E-01 0.43231022E+03</pdfrwt>
<totfact> 0.76625750E+04</totfact>
</mgrwt>
</event>
<event>
 6    0  0.1539497E-004  0.4741510E+03  0.7546771E-02  0.1020755E+00
         21   -1    0    0  502  501  0.00000000000E+00  0.00000000000E+00  0.50429963569E+03  0.50429963569E+03  0.00000000000E+00 0.  1.
         21   -1    0    0  501  502 -0.00000000000E+00 -0.00000000000E+00 -0.11145116404E+03  0.11145116404E+03  0.00000000000E+00 0.  1.
      99925    2    1    2    0    0  0.87260594404E+02 -0.83900875527E+02  0.30553836400E+03  0.42100909580E+03  0.26313722394E+03 0.  0.
         25    1    3    3    0    0  0.31744899177E+02 -0.13684435116E+02  0.97703092839E+02  0.16244508253E+03  0.12509000000E+03 0.  0.
         25    1    1    2    0    0 -0.87260594404E+02  0.83900875527E+02  0.87310107647E+02  0.19474170392E+03  0.12509000000E+03 0.  0.
         25    1    3    3    0    0  0.55515695227E+02 -0.70216440411E+02  0.20783527116E+03  0.25856401327E+03  0.12509000000E+03 0.  0.
<mgrwt>
<rscale>  2 0.47415095E+03</rscale>
<asrwt>0</asrwt>
<pdfrwt beam="1">  1       21 0.74161710E-01 0.47415095E+03</pdfrwt>
<pdfrwt beam="2">  1       21 0.16389877E-01 0.47415095E+03</pdfrwt>
<totfact> 0.49754934E+04</totfact>
</mgrwt>
</event>
<event>
 6    0  0.1539497E-004  0.1044941E+04  0.7546771E-02  0.9260582E-01
         21   -1    0    0  502  501  0.00000000000E+00  0.00000000000E+00  0.43734163306E+03  0.43734163306E+03  0.00000000000E+00 0. -1.
         21   -1    0    0  501  502 -0.00000000000E+00 -0.00000000000E+00 -0.62417035268E+03  0.62417035268E+03  0.00000000000E+00 0. -1.
      99925    2    1    2    0    0  0.16032603867E+02  0.87903563543E+02 -0.57786908743E+03  0.64134040386E+03  0.26344022195E+03 0.  0.
         25    1    3    3    0    0  0.23853294909E+02  0.89202946567E+01 -0.30957835545E+03  0.33486537235E+03  0.12509000000E+03 0.  0.
         25    1    1    2    0    0 -0.16032603867E+02 -0.87903563543E+02  0.39104036780E+03  0.42017158188E+03  0.12509000000E+03 0.  0.
         25    1    3    3    0    0 -0.78206910423E+01  0.78983268886E+02 -0.26829073198E+03  0.30647503151E+03  0.12509000000E+03 0.  0.
<mgrwt>
<rscale>  2 0.10449415E+04</rscale>
<asrwt>0</asrwt>
<pdfrwt beam="1">  1       21 0.64314947E-01 0.10449415E+04</pdfrwt>
<pdfrwt beam="2">  1       21 0.91789757E-01 0.10449415E+04</pdfrwt>
<totfact> 0.16789904E+03</totfact>
</mgrwt>
</event>
<event>
 6    0  0.1539497E-004  0.4565542E+03  0.7546771E-02  0.1025785E+00
         21   -1    0    0  502  501  0.00000000000E+00  0.00000000000E+00  0.63774899172E+03  0.63774899172E+03  0.00000000000E+00 0.  1.
         21   -1    0    0  501  502 -0.00000000000E+00 -0.00000000000E+00 -0.81709960558E+02  0.81709960558E+02  0.00000000000E+00 0.  1.
      99925    2    1    2    0    0 -0.78854310896E+02 -0.25206670102E+02  0.22442165257E+03  0.35549333240E+03  0.26297728548E+03 0.  0.
         25    1    1    2    0    0  0.78854310896E+02  0.25206670102E+02  0.33161737859E+03  0.36396561987E+03  0.12509000000E+03 0.  0.
         25    1    3    3    0    0 -0.78505897793E+01 -0.38477227279E+02  0.10106907331E+03  0.16554333106E+03  0.12509000000E+03 0.  0.
         25    1    3    3    0    0 -0.71003721117E+02  0.13270557177E+02  0.12335257925E+03  0.18995000134E+03  0.12509000000E+03 0.  0.
<mgrwt>
<rscale>  2 0.45655425E+03</rscale>
<asrwt>0</asrwt>
<pdfrwt beam="1">  1       21 0.93786614E-01 0.45655425E+03</pdfrwt>
<pdfrwt beam="2">  1       21 0.12016171E-01 0.45655425E+03</pdfrwt>
<totfact> 0.51230025E+04</totfact>
</mgrwt>
</event>
<event>
 6    0  0.1539497E-004  0.4790308E+03  0.7546771E-02  0.1019402E+00
         21   -1    0    0  502  501  0.00000000000E+00  0.00000000000E+00  0.12874174770E+03  0.12874174770E+03  0.00000000000E+00 0.  1.
         21   -1    0    0  501  502 -0.00000000000E+00 -0.00000000000E+00 -0.44560229096E+03  0.44560229096E+03  0.00000000000E+00 0.  1.
      99925    2    1    2    0    0  0.51739923470E+02  0.51173851092E+02 -0.33096695826E+03  0.42894018121E+03  0.26297294325E+03 0.  0.
         25    1    1    2    0    0 -0.51739923470E+02 -0.51173851092E+02  0.14106415007E+02  0.14540385745E+03  0.12509000000E+03 0.  0.
         25    1    3    3    0    0 -0.25303368902E+01  0.32729123560E+02 -0.20503892873E+03  0.24241713745E+03  0.12509000000E+03 0.  0.
         25    1    3    3    0    0  0.54270260361E+02  0.18444727532E+02 -0.12592802953E+03  0.18652304376E+03  0.12509000000E+03 0.  0.
<mgrwt>
<rscale>  2 0.47903076E+03</rscale>
<asrwt>0</asrwt>
<pdfrwt beam="1">  1       21 0.18932610E-01 0.47903076E+03</pdfrwt>
<pdfrwt beam="2">  1       21 0.65529749E-01 0.47903076E+03</pdfrwt>
<totfact> 0.50070040E+04</totfact>
</mgrwt>
</event>
<event>
 6    0  0.1539497E-004  0.4208336E+03  0.7546771E-02  0.1036795E+00
         21   -1    0    0  502  501  0.00000000000E+00  0.00000000000E+00  0.21747845690E+04  0.21747845690E+04  0.00000000000E+00 0.  1.
         21   -1    0    0  501  502 -0.00000000000E+00 -0.00000000000E+00 -0.20358446534E+02  0.20358446534E+02  0.00000000000E+00 0.  1.
      99925    2    1    2    0    0  0.74198100612E+02 -0.11326498791E+02  0.13284026956E+04  0.13563368058E+04  0.26336697078E+03 0.  0.
         25    1    1    2    0    0 -0.74198100612E+02  0.11326498791E+02  0.82602342687E+03  0.83880620977E+03  0.12509000000E+03 0.  0.
         25    1    3    3    0    0  0.79444049847E+02 -0.63952876308E+01  0.69210573624E+03  0.70782067997E+03  0.12509000000E+03 0.  0.
         25    1    3    3    0    0 -0.52459492355E+01 -0.49312111603E+01  0.63629695935E+03  0.64851612579E+03  0.12509000000E+03 0.  0.
<mgrwt>
<rscale>  2 0.42083363E+03</rscale>
<asrwt>0</asrwt>
<pdfrwt beam="1">  1       21 0.31982110E+00 0.42083363E+03</pdfrwt>
<pdfrwt beam="2">  1       21 0.29938907E-02 0.42083363E+03</pdfrwt>
<totfact> 0.14185199E+04</totfact>
</mgrwt>
</event>
<event>
 6    0  0.1539497E-004  0.4720907E+03  0.7546771E-02  0.1021332E+00
         21   -1    0    0  502  501  0.00000000000E+00  0.00000000000E+00  0.10851551204E+03  0.10851551204E+03  0.00000000000E+00 0.  1.
         21   -1    0    0  501  502 -0.00000000000E+00 -0.00000000000E+00 -0.51345102804E+03  0.51345102804E+03  0.00000000000E+00 0.  1.
      99925    2    1    2    0    0  0.70269694723E+02  0.67026644326E+02 -0.13980488879E+03  0.31314270901E+03  0.26283559164E+03 0.  0.
         25    1    3    3    0    0  0.69169450027E+02  0.57507808936E+02 -0.66258243559E+02  0.16771769091E+03  0.12509000000E+03 0.  0.
         25    1    3    3    0    0  0.11002446957E+01  0.95188353897E+01 -0.73546645227E+02  0.14542501810E+03  0.12509000000E+03 0.  0.
         25    1    1    2    0    0 -0.70269694723E+02 -0.67026644326E+02 -0.26513062721E+03  0.30882383106E+03  0.12509000000E+03 0.  0.
<mgrwt>
<rscale>  2 0.47209067E+03</rscale>
<asrwt>0</asrwt>
<pdfrwt beam="1">  1       21 0.15958164E-01 0.47209067E+03</pdfrwt>
<pdfrwt beam="2">  1       21 0.75507503E-01 0.47209067E+03</pdfrwt>
<totfact> 0.50217560E+04</totfact>
</mgrwt>
</event>
<event>
 6    0  0.1539497E-004  0.4055641E+03  0.7546771E-02  0.1041870E+00
         21   -1    0    0  502  501  0.00000000000E+00  0.00000000000E+00  0.20202783781E+03  0.20202783781E+03  0.00000000000E+00 0. -1.
         21   -1    0    0  501  502 -0.00000000000E+00 -0.00000000000E+00 -0.20353909744E+03  0.20353909744E+03  0.00000000000E+00 0. -1.
      99925    2    1    2    0    0 -0.13324902522E+02  0.44848450717E+02  0.29044645886E+02  0.26856289144E+03  0.26285642212E+03 0.  0.
         25    1    3    3    0    0 -0.41620903261E+02  0.53946281755E+01  0.25188529706E+02  0.13432561829E+03  0.12509000000E+03 0.  0.
         25    1    1    2    0    0  0.13324902522E+02 -0.44848450717E+02 -0.30555905516E+02  0.13700404381E+03  0.12509000000E+03 0.  0.
         25    1    3    3    0    0  0.28296000739E+02  0.39453822541E+02  0.38561161801E+01  0.13423727315E+03  0.12509000000E+03 0.  0.
<mgrwt>
<rscale>  2 0.40556412E+03</rscale>
<asrwt>0</asrwt>
<pdfrwt beam="1">  1       21 0.29709976E-01 0.40556412E+03</pdfrwt>
<pdfrwt beam="2">  1       21 0.29932220E-01 0.40556412E+03</pdfrwt>
<totfact> 0.10958689E+05</totfact>
</mgrwt>
</event>
<event>
 6    0  0.1539497E-004  0.4275559E+03  0.7546771E-02  0.1034635E+00
         21   -1    0    0  502  501  0.00000000000E+00  0.00000000000E+00  0.36443351681E+04  0.36443351681E+04  0.00000000000E+00 0. -1.
         21   -1    0    0  501  502 -0.00000000000E+00 -0.00000000000E+00 -0.12540289445E+02  0.12540289445E+02  0.00000000000E+00 0. -1.
      99925    2    1    2    0    0 -0.48270243222E+02 -0.63705892258E+02  0.20916975275E+04  0.21096405639E+04  0.26267147745E+03 0.  0.
         25    1    3    3    0    0 -0.35807960881E+02 -0.48728104306E+02  0.82335753031E+03  0.83499806529E+03  0.12509000000E+03 0.  0.
         25    1    3    3    0    0 -0.12462282341E+02 -0.14977787952E+02  0.12683399972E+04  0.12746424986E+04  0.12509000000E+03 0.  0.
         25    1    1    2    0    0  0.48270243222E+02  0.63705892258E+02  0.15400973512E+04  0.15472348937E+04  0.12509000000E+03 0.  0.
<mgrwt>
<rscale>  2 0.42755593E+03</rscale>
<asrwt>0</asrwt>
<pdfrwt beam="1">  1       21 0.53593091E+00 0.42755593E+03</pdfrwt>
<pdfrwt beam="2">  1       21 0.18441627E-02 0.42755593E+03</pdfrwt>
<totfact> 0.11682820E+03</totfact>
</mgrwt>
</event>
<event>
 6    0  0.1539497E-004  0.4034039E+03  0.7546771E-02  0.1042607E+00
         21   -1    0    0  502  501  0.00000000000E+00  0.00000000000E+00  0.17872900417E+04  0.17872900417E+04  0.00000000000E+00 0.  1.
         21   -1    0    0  501  502 -0.00000000000E+00 -0.00000000000E+00 -0.22762775895E+02  0.22762775895E+02  0.00000000000E+00 0.  1.
      99925    2    1    2    0    0 -0.23066904527E+01  0.41904848402E+02  0.10354020416E+04  0.10690855864E+04  0.26291684238E+03 0.  0.
         25    1    3    3    0    0  0.31573581420E+02  0.11222723962E+02  0.59782314414E+03  0.61168853213E+03  0.12509000000E+03 0.  0.
         25    1    3    3    0    0 -0.33880271873E+02  0.30682124440E+02  0.43757889751E+03  0.45739705424E+03  0.12509000000E+03 0.  0.
         25    1    1    2    0    0  0.23066904527E+01 -0.41904848402E+02  0.72912522417E+03  0.74096723123E+03  0.12509000000E+03 0.  0.
<mgrwt>
<rscale>  2 0.40340393E+03</rscale>
<asrwt>0</asrwt>
<pdfrwt beam="1">  1       21 0.26283667E+00 0.40340393E+03</pdfrwt>
<pdfrwt beam="2">  1       21 0.33474683E-02 0.40340393E+03</pdfrwt>
<totfact> 0.26038939E+04</totfact>
</mgrwt>
</event>
<event>
 6    0  0.1539497E-004  0.4398064E+03  0.7546771E-02  0.1030806E+00
         21   -1    0    0  502  501  0.00000000000E+00  0.00000000000E+00  0.18188365850E+03  0.18188365850E+03  0.00000000000E+00 0.  1.
         21   -1    0    0  501  502 -0.00000000000E+00 -0.00000000000E+00 -0.26586999705E+03  0.26586999705E+03  0.00000000000E+00 0.  1.
      99925    2    1    2    0    0  0.24832144935E+02 -0.93790233188E+02 -0.41541875577E+02  0.28385648109E+03  0.26350622604E+03 0.  0.
         25    1    1    2    0    0 -0.24832144935E+02  0.93790233188E+02 -0.42444462973E+02  0.16389717447E+03  0.12509000000E+03 0.  0.
         25    1    3    3    0    0  0.14811507894E+02 -0.89184668522E+02 -0.34093169530E+02  0.15806055224E+03  0.12509000000E+03 0.  0.
         25    1    3    3    0    0  0.10020637041E+02 -0.46055646660E+01 -0.74487060470E+01  0.12579592885E+03  0.12509000000E+03 0.  0.
<mgrwt>
<rscale>  2 0.43980636E+03</rscale>
<asrwt>0</asrwt>
<pdfrwt beam="1">  1       21 0.26747597E-01 0.43980636E+03</pdfrwt>
<pdfrwt beam="2">  1       21 0.39098528E-01 0.43980636E+03</pdfrwt>
<totfact> 0.78124897E+04</totfact>
</mgrwt>
</event>
<event>
 6    0  0.1539497E-004  0.4098255E+03  0.7546771E-02  0.1040430E+00
         21   -1    0    0  502  501  0.00000000000E+00  0.00000000000E+00  0.95260918134E+02  0.95260918134E+02  0.00000000000E+00 0.  1.
         21   -1    0    0  501  502 -0.00000000000E+00 -0.00000000000E+00 -0.44078135515E+03  0.44078135515E+03  0.00000000000E+00 0.  1.
      99925    2    1    2    0    0 -0.46466575349E+01 -0.19224515453E+01 -0.14690335772E+03  0.30126250513E+03  0.26296998544E+03 0.  0.
         25    1    3    3    0    0 -0.41387758478E+02 -0.81118662128E+01 -0.64689846872E+02  0.14700691587E+03  0.12509000000E+03 0.  0.
         25    1    3    3    0    0  0.36741100943E+02  0.61894146675E+01 -0.82213510849E+02  0.15425558926E+03  0.12509000000E+03 0.  0.
         25    1    1    2    0    0  0.46466575349E+01  0.19224515453E+01 -0.19861707930E+03  0.23477976816E+03  0.12509000000E+03 0.  0.
<mgrwt>
<rscale>  2 0.40982551E+03</rscale>
<asrwt>0</asrwt>
<pdfrwt beam="1">  1       21 0.14008959E-01 0.40982551E+03</pdfrwt>
<pdfrwt beam="2">  1       21 0.64820786E-01 0.40982551E+03</pdfrwt>
<totfact> 0.91328870E+04</totfact>
</mgrwt>
</event>
<event>
 6    0  0.1539497E-004  0.4040730E+03  0.7546771E-02  0.1042378E+00
         21   -1    0    0  502  501  0.00000000000E+00  0.00000000000E+00  0.20795510215E+03  0.20795510215E+03  0.00000000000E+00 0. -1.
         21   -1    0    0  501  502 -0.00000000000E+00 -0.00000000000E+00 -0.19628635433E+03  0.19628635433E+03  0.00000000000E+00 0. -1.
      99925    2    1    2    0    0  0.47688118110E+02 -0.15657624499E+02 -0.83312209660E+01  0.26798132047E+03  0.26310693846E+03 0.  0.
         25    1    3    3    0    0 -0.61266774630E+01  0.18370839181E+02  0.70670833794E+01  0.12677726798E+03  0.12509000000E+03 0.  0.
         25    1    1    2    0    0 -0.47688118110E+02  0.15657624499E+02  0.19999968788E+02  0.13626013601E+03  0.12509000000E+03 0.  0.
         25    1    3    3    0    0  0.53814795573E+02 -0.34028463680E+02 -0.15398304345E+02  0.14120405249E+03  0.12509000000E+03 0.  0.
<mgrwt>
<rscale>  2 0.40407301E+03</rscale>
<asrwt>0</asrwt>
<pdfrwt beam="1">  1       21 0.30581633E-01 0.40407301E+03</pdfrwt>
<pdfrwt beam="2">  1       21 0.28865640E-01 0.40407301E+03</pdfrwt>
<totfact> 0.11120997E+05</totfact>
</mgrwt>
</event>
<event>
 6    0  0.1539497E-004  0.3987394E+03  0.7546771E-02  0.1044217E+00
         21   -1    0    0  502  501  0.00000000000E+00  0.00000000000E+00  0.38031782158E+03  0.38031782158E+03  0.00000000000E+00 0.  1.
         21   -1    0    0  501  502 -0.00000000000E+00 -0.00000000000E+00 -0.10451333702E+03  0.10451333702E+03  0.00000000000E+00 0.  1.
      99925    2    1    2    0    0 -0.15269250699E+02 -0.32667977522E+02  0.15619851694E+03  0.30804472709E+03  0.26304606141E+03 0.  0.
         25    1    3    3    0    0 -0.37457047341E+02 -0.44407303733E+02  0.80930744502E+02  0.15991351577E+03  0.12509000000E+03 0.  0.
         25    1    1    2    0    0  0.15269250699E+02  0.32667977522E+02  0.11960596762E+03  0.17678643150E+03  0.12509000000E+03 0.  0.
         25    1    3    3    0    0  0.22187796642E+02  0.11739326211E+02  0.75267772439E+02  0.14813121132E+03  0.12509000000E+03 0.  0.
<mgrwt>
<rscale>  2 0.39873944E+03</rscale>
<asrwt>0</asrwt>
<pdfrwt beam="1">  1       21 0.55929091E-01 0.39873944E+03</pdfrwt>
<pdfrwt beam="2">  1       21 0.15369609E-01 0.39873944E+03</pdfrwt>
<totfact> 0.10651474E+05</totfact>
</mgrwt>
</event>
<event>
 6    0  0.1539497E-004  0.4301984E+03  0.7546771E-02  0.1033797E+00
         21   -1    0    0  502  501  0.00000000000E+00  0.00000000000E+00  0.70598571353E+02  0.70598571353E+02  0.00000000000E+00 0.  1.
         21   -1    0    0  501  502 -0.00000000000E+00 -0.00000000000E+00 -0.65536263190E+03  0.65536263190E+03  0.00000000000E+00 0.  1.
      99925    2    1    2    0    0  0.68153599102E+02 -0.54520110308E+02 -0.39925811888E+03  0.48580017812E+03  0.26263551183E+03 0.  0.
         25    1    3    3    0    0  0.14770460208E+02  0.89104921417E+01 -0.19573535016E+03  0.23293217633E+03  0.12509000000E+03 0.  0.
         25    1    1    2    0    0 -0.68153599102E+02  0.54520110308E+02 -0.18550594167E+03  0.24016102514E+03  0.12509000000E+03 0.  0.
         25    1    3    3    0    0  0.53383138893E+02 -0.63430602450E+02 -0.20352276871E+03  0.25286800179E+03  0.12509000000E+03 0.  0.
<mgrwt>
<rscale>  2 0.43019840E+03</rscale>
<asrwt>0</asrwt>
<pdfrwt beam="1">  1       21 0.10382143E-01 0.43019840E+03</pdfrwt>
<pdfrwt beam="2">  1       21 0.96376861E-01 0.43019840E+03</pdfrwt>
<totfact> 0.62919166E+04</totfact>
</mgrwt>
</event>
<event>
 6    0  0.1539497E-004  0.5033010E+03  0.7546771E-02  0.1012921E+00
         21   -1    0    0  502  501  0.00000000000E+00  0.00000000000E+00  0.49642965557E+02  0.49642965557E+02  0.00000000000E+00 0.  1.
         21   -1    0    0  501  502 -0.00000000000E+00 -0.00000000000E+00 -0.12756688227E+04  0.12756688227E+04  0.00000000000E+00 0.  1.
      99925    2    1    2    0    0  0.21450268223E+02 -0.24938681591E+02 -0.34609344735E+03  0.43592401807E+03  0.26299624216E+03 0.  0.
         25    1    3    3    0    0 -0.21831355266E+02 -0.25285418810E+02 -0.13738956726E+03  0.18878390231E+03  0.12509000000E+03 0.  0.
         25    1    1    2    0    0 -0.21450268223E+02  0.24938681591E+02 -0.87993240979E+03  0.88938777018E+03  0.12509000000E+03 0.  0.
         25    1    3    3    0    0  0.43281623489E+02  0.34673721815E+00 -0.20870388008E+03  0.24714011577E+03  0.12509000000E+03 0.  0.
<mgrwt>
<rscale>  2 0.50330104E+03</rscale>
<asrwt>0</asrwt>
<pdfrwt beam="1">  1       21 0.73004372E-02 0.50330104E+03</pdfrwt>
<pdfrwt beam="2">  1       21 0.18759833E+00 0.50330104E+03</pdfrwt>
<totfact> 0.19826230E+04</totfact>
</mgrwt>
</event>
<event>
 6    0  0.1539497E-004  0.4276511E+03  0.7546771E-02  0.1034605E+00
         21   -1    0    0  502  501  0.00000000000E+00  0.00000000000E+00  0.46112912551E+02  0.46112912551E+02  0.00000000000E+00 0. -1.
         21   -1    0    0  501  502 -0.00000000000E+00 -0.00000000000E+00 -0.99150897052E+03  0.99150897052E+03  0.00000000000E+00 0. -1.
      99925    2    1    2    0    0  0.33407200178E+02  0.62398896311E+02 -0.49639646982E+03  0.56617962622E+03  0.26294533769E+03 0.  0.
         25    1    3    3    0    0 -0.17503692860E+02  0.44961018525E+02 -0.28103393257E+03  0.31137670402E+03  0.12509000000E+03 0.  0.
         25    1    3    3    0    0  0.50910893039E+02  0.17437877786E+02 -0.21536253724E+03  0.25480292220E+03  0.12509000000E+03 0.  0.
         25    1    1    2    0    0 -0.33407200178E+02 -0.62398896311E+02 -0.44899958815E+03  0.47144225685E+03  0.12509000000E+03 0.  0.
<mgrwt>
<rscale>  2 0.42765110E+03</rscale>
<asrwt>0</asrwt>
<pdfrwt beam="1">  1       21 0.67813114E-02 0.42765110E+03</pdfrwt>
<pdfrwt beam="2">  1       21 0.14581013E+00 0.42765110E+03</pdfrwt>
<totfact> 0.46994375E+04</totfact>
</mgrwt>
</event>
<event>
 6    0  0.1539497E-004  0.8882349E+03  0.7546771E-02  0.9440409E-01
         21   -1    0    0  502  501  0.00000000000E+00  0.00000000000E+00  0.93974242461E+03  0.93974242461E+03  0.00000000000E+00 0. -1.
         21   -1    0    0  501  502 -0.00000000000E+00 -0.00000000000E+00 -0.20988763466E+03  0.20988763466E+03  0.00000000000E+00 0. -1.
      99925    2    1    2    0    0 -0.33633135160E+03  0.17841058334E+03  0.52438848191E+03  0.69928238674E+03  0.26279928108E+03 0.  0.
         25    1    3    3    0    0 -0.17310389226E+03  0.84080860173E+02  0.32392363037E+03  0.39699946470E+03  0.12509000000E+03 0.  0.
         25    1    1    2    0    0  0.33633135160E+03 -0.17841058334E+03  0.20546630804E+03  0.45034767254E+03  0.12509000000E+03 0.  0.
         25    1    3    3    0    0 -0.16322745934E+03  0.94329723164E+02  0.20046485154E+03  0.30228292204E+03  0.12509000000E+03 0.  0.
<mgrwt>
<rscale>  2 0.88823491E+03</rscale>
<asrwt>0</asrwt>
<pdfrwt beam="1">  1       21 0.13819741E+00 0.88823491E+03</pdfrwt>
<pdfrwt beam="2">  1       21 0.30865829E-01 0.88823491E+03</pdfrwt>
<totfact> 0.28922209E+03</totfact>
</mgrwt>
</event>
<event>
 6    0  0.1539497E-004  0.4239690E+03  0.7546771E-02  0.1035782E+00
         21   -1    0    0  502  501  0.00000000000E+00  0.00000000000E+00  0.77816212189E+02  0.77816212189E+02  0.00000000000E+00 0. -1.
         21   -1    0    0  501  502 -0.00000000000E+00 -0.00000000000E+00 -0.57748165775E+03  0.57748165775E+03  0.00000000000E+00 0. -1.
      99925    2    1    2    0    0  0.40285625607E+01 -0.80307582476E+02 -0.33247087564E+03  0.43154115064E+03  0.26310709688E+03 0.  0.
         25    1    3    3    0    0 -0.21369256212E+02 -0.56341034025E+02 -0.21777673002E+03  0.25827343933E+03  0.12509000000E+03 0.  0.
         25    1    1    2    0    0 -0.40285625607E+01  0.80307582476E+02 -0.16719456991E+03  0.22375671929E+03  0.12509000000E+03 0.  0.
         25    1    3    3    0    0  0.25397818773E+02 -0.23966548451E+02 -0.11469414563E+03  0.17326771131E+03  0.12509000000E+03 0.  0.
<mgrwt>
<rscale>  2 0.42396903E+03</rscale>
<asrwt>0</asrwt>
<pdfrwt beam="1">  1       21 0.11443560E-01 0.42396903E+03</pdfrwt>
<pdfrwt beam="2">  1       21 0.84923777E-01 0.42396903E+03</pdfrwt>
<totfact> 0.71298572E+04</totfact>
</mgrwt>
</event>
<event>
 6    0  0.1539497E-004  0.4300864E+03  0.7546771E-02  0.1033833E+00
         21   -1    0    0  502  501  0.00000000000E+00  0.00000000000E+00  0.10287383723E+03  0.10287383723E+03  0.00000000000E+00 0.  1.
         21   -1    0    0  501  502 -0.00000000000E+00 -0.00000000000E+00 -0.44951744140E+03  0.44951744140E+03  0.00000000000E+00 0.  1.
      99925    2    1    2    0    0  0.23405959516E+02 -0.74902466966E+02 -0.17287069247E+03  0.32435016077E+03  0.26298390060E+03 0.  0.
         25    1    3    3    0    0  0.21355972922E+02 -0.75567185962E+02 -0.11114131987E+03  0.18484149495E+03  0.12509000000E+03 0.  0.
         25    1    3    3    0    0  0.20499865938E+01  0.66471899572E+00 -0.61729372599E+02  0.13950866582E+03  0.12509000000E+03 0.  0.
         25    1    1    2    0    0 -0.23405959516E+02  0.74902466966E+02 -0.17377291169E+03  0.22804111786E+03  0.12509000000E+03 0.  0.
<mgrwt>
<rscale>  2 0.43008643E+03</rscale>
<asrwt>0</asrwt>
<pdfrwt beam="1">  1       21 0.15128505E-01 0.43008643E+03</pdfrwt>
<pdfrwt beam="2">  1       21 0.66105506E-01 0.43008643E+03</pdfrwt>
<totfact> 0.75530721E+04</totfact>
</mgrwt>
</event>
<event>
 6    0  0.1539497E-004  0.4392529E+03  0.7546771E-02  0.1030976E+00
         21   -1    0    0  502  501  0.00000000000E+00  0.00000000000E+00  0.30168580447E+03  0.30168580447E+03  0.00000000000E+00 0.  1.
         21   -1    0    0  501  502 -0.00000000000E+00 -0.00000000000E+00 -0.15988749518E+03  0.15988749518E+03  0.00000000000E+00 0.  1.
      99925    2    1    2    0    0  0.96663119151E+02 -0.38571447161E+01  0.76563710089E+02  0.29051279222E+03  0.26301529342E+03 0.  0.
         25    1    1    2    0    0 -0.96663119151E+02  0.38571447161E+01  0.65234599207E+02  0.17106050743E+03  0.12509000000E+03 0.  0.
         25    1    3    3    0    0  0.10996216599E+02 -0.17903948801E+02  0.47847465468E+02  0.13556679613E+03  0.12509000000E+03 0.  0.
         25    1    3    3    0    0  0.85666902551E+02  0.14046804085E+02  0.28716244621E+02  0.15494599609E+03  0.12509000000E+03 0.  0.
<mgrwt>
<rscale>  2 0.43925295E+03</rscale>
<asrwt>0</asrwt>
<pdfrwt beam="1">  1       21 0.44365560E-01 0.43925295E+03</pdfrwt>
<pdfrwt beam="2">  1       21 0.23512867E-01 0.43925295E+03</pdfrwt>
<totfact> 0.77281083E+04</totfact>
</mgrwt>
</event>
<event>
 6    0  0.1539497E-004  0.4000782E+03  0.7546771E-02  0.1043753E+00
         21   -1    0    0  502  501  0.00000000000E+00  0.00000000000E+00  0.19163095701E+04  0.19163095701E+04  0.00000000000E+00 0.  1.
         21   -1    0    0  501  502 -0.00000000000E+00 -0.00000000000E+00 -0.20881617961E+02  0.20881617961E+02  0.00000000000E+00 0.  1.
      99925    2    1    2    0    0  0.38640483655E+02  0.16838294244E+02  0.13477782358E+04  0.13738579518E+04  0.26306440998E+03 0.  0.
         25    1    3    3    0    0  0.94675327227E+01 -0.10244990050E+02  0.84041011028E+03  0.84978306382E+03  0.12509000000E+03 0.  0.
         25    1    3    3    0    0  0.29172950933E+02  0.27083284294E+02  0.50736812551E+03  0.52407488800E+03  0.12509000000E+03 0.  0.
         25    1    1    2    0    0 -0.38640483655E+02 -0.16838294244E+02  0.54764971640E+03  0.56333323628E+03  0.12509000000E+03 0.  0.
<mgrwt>
<rscale>  2 0.40007821E+03</rscale>
<asrwt>0</asrwt>
<pdfrwt beam="1">  1       21 0.28181011E+00 0.40007821E+03</pdfrwt>
<pdfrwt beam="2">  1       21 0.30708275E-02 0.40007821E+03</pdfrwt>
<totfact> 0.23186582E+04</totfact>
</mgrwt>
</event>
<event>
 6    0  0.1539497E-004  0.4165425E+03  0.7546771E-02  0.1038198E+00
         21   -1    0    0  502  501  0.00000000000E+00  0.00000000000E+00  0.51318542658E+02  0.51318542658E+02  0.00000000000E+00 0.  1.
         21   -1    0    0  501  502 -0.00000000000E+00 -0.00000000000E+00 -0.84524818719E+03  0.84524818719E+03  0.00000000000E+00 0.  1.
      99925    2    1    2    0    0 -0.62134085055E+02  0.10210822769E+02 -0.44740111234E+03  0.52280953975E+03  0.26305351947E+03 0.  0.
         25    1    3    3    0    0 -0.23222081064E+02 -0.29794419256E+02 -0.25631652860E+03  0.28770235209E+03  0.12509000000E+03 0.  0.
         25    1    1    2    0    0  0.62134085055E+02 -0.10210822769E+02 -0.34652853219E+03  0.37375719010E+03  0.12509000000E+03 0.  0.
         25    1    3    3    0    0 -0.38912003991E+02  0.40005242025E+02 -0.19108458374E+03  0.23510718766E+03  0.12509000000E+03 0.  0.
<mgrwt>
<rscale>  2 0.41654246E+03</rscale>
<asrwt>0</asrwt>
<pdfrwt beam="1">  1       21 0.75468450E-02 0.41654246E+03</pdfrwt>
<pdfrwt beam="2">  1       21 0.12430120E+00 0.41654246E+03</pdfrwt>
<totfact> 0.59322214E+04</totfact>
</mgrwt>
</event>
<event>
 6    0  0.1539497E-004  0.4426916E+03  0.7546771E-02  0.1029924E+00
         21   -1    0    0  502  501  0.00000000000E+00  0.00000000000E+00  0.19764959771E+04  0.19764959771E+04  0.00000000000E+00 0. -1.
         21   -1    0    0  501  502 -0.00000000000E+00 -0.00000000000E+00 -0.24788295734E+02  0.24788295734E+02  0.00000000000E+00 0. -1.
      99925    2    1    2    0    0  0.68279445777E+02  0.68490267524E+02  0.11080234471E+04  0.11429116296E+04  0.26301717475E+03 0.  0.
         25    1    3    3    0    0  0.55129820795E+01  0.33414608261E+02  0.40475915809E+03  0.42499930961E+03  0.12509000000E+03 0.  0.
         25    1    3    3    0    0  0.62766463698E+02  0.35075659263E+02  0.70326428906E+03  0.71791232000E+03  0.12509000000E+03 0.  0.
         25    1    1    2    0    0 -0.68279445777E+02 -0.68490267524E+02  0.84368423418E+03  0.85837264318E+03  0.12509000000E+03 0.  0.
<mgrwt>
<rscale>  2 0.44269162E+03</rscale>
<asrwt>0</asrwt>
<pdfrwt beam="1">  1       21 0.29066106E+00 0.44269162E+03</pdfrwt>
<pdfrwt beam="2">  1       21 0.36453390E-02 0.44269162E+03</pdfrwt>
<totfact> 0.15078758E+04</totfact>
</mgrwt>
</event>
<event>
 6    0  0.1539497E-004  0.5570707E+03  0.7546771E-02  0.9998705E-01
         21   -1    0    0  502  501  0.00000000000E+00  0.00000000000E+00  0.14063369407E+03  0.14063369407E+03  0.00000000000E+00 0. -1.
         21   -1    0    0  501  502 -0.00000000000E+00 -0.00000000000E+00 -0.55165961437E+03  0.55165961437E+03  0.00000000000E+00 0. -1.
      99925    2    1    2    0    0  0.19310718526E+03 -0.33206127581E+01 -0.25829875611E+03  0.41611491275E+03  0.26292957562E+03 0.  0.
         25    1    3    3    0    0  0.11400358725E+03 -0.99737938181E+01 -0.90178834671E+02  0.19203131201E+03  0.12509000000E+03 0.  0.
         25    1    3    3    0    0  0.79103598013E+02  0.66531810600E+01 -0.16811992144E+03  0.22408360074E+03  0.12509000000E+03 0.  0.
         25    1    1    2    0    0 -0.19310718526E+03  0.33206127581E+01 -0.15272716419E+03  0.27617839570E+03  0.12509000000E+03 0.  0.
<mgrwt>
<rscale>  2 0.55707066E+03</rscale>
<asrwt>0</asrwt>
<pdfrwt beam="1">  1       21 0.20681425E-01 0.55707066E+03</pdfrwt>
<pdfrwt beam="2">  1       21 0.81126414E-01 0.55707066E+03</pdfrwt>
<totfact> 0.25607288E+04</totfact>
</mgrwt>
</event>
<event>
 6    0  0.1539497E-004  0.4436223E+03  0.7546771E-02  0.1029641E+00
         21   -1    0    0  502  501  0.00000000000E+00  0.00000000000E+00  0.26202410056E+03  0.26202410056E+03  0.00000000000E+00 0.  1.
         21   -1    0    0  501  502 -0.00000000000E+00 -0.00000000000E+00 -0.18776969258E+03  0.18776969258E+03  0.00000000000E+00 0.  1.
      99925    2    1    2    0    0 -0.96912162737E+02 -0.98409948321E+01  0.15968234620E+02  0.28087488191E+03  0.26295798582E+03 0.  0.
         25    1    3    3    0    0 -0.46465412367E+02 -0.45363972748E+02  0.76862735243E+01  0.14115066939E+03  0.12509000000E+03 0.  0.
         25    1    1    2    0    0  0.96912162737E+02  0.98409948321E+01  0.58286173358E+02  0.16891891123E+03  0.12509000000E+03 0.  0.
         25    1    3    3    0    0 -0.50446750370E+02  0.35522977916E+02  0.82819610960E+01  0.13972421251E+03  0.12509000000E+03 0.  0.
<mgrwt>
<rscale>  2 0.44362229E+03</rscale>
<asrwt>0</asrwt>
<pdfrwt beam="1">  1       21 0.38532956E-01 0.44362229E+03</pdfrwt>
<pdfrwt beam="2">  1       21 0.27613190E-01 0.44362229E+03</pdfrwt>
<totfact> 0.75556886E+04</totfact>
</mgrwt>
</event>
<event>
 6    0  0.1539497E-004  0.4963502E+03  0.7546771E-02  0.1014736E+00
         21   -1    0    0  502  501  0.00000000000E+00  0.00000000000E+00  0.54393377833E+02  0.54393377833E+02  0.00000000000E+00 0.  1.
         21   -1    0    0  501  502 -0.00000000000E+00 -0.00000000000E+00 -0.11323233428E+04  0.11323233428E+04  0.00000000000E+00 0.  1.
      99925    2    1    2    0    0 -0.55258930401E+02  0.64722271084E+02 -0.94726105555E+03  0.98680575607E+03  0.26313413138E+03 0.  0.
         25    1    3    3    0    0 -0.68317119707E+02  0.43049615410E+02 -0.50154035154E+03  0.52317370973E+03  0.12509000000E+03 0.  0.
         25    1    3    3    0    0  0.13058189307E+02  0.21672655673E+02 -0.44572070401E+03  0.46363204634E+03  0.12509000000E+03 0.  0.
         25    1    1    2    0    0  0.55258930401E+02 -0.64722271084E+02 -0.13066890942E+03  0.19991096456E+03  0.12509000000E+03 0.  0.
<mgrwt>
<rscale>  2 0.49635024E+03</rscale>
<asrwt>0</asrwt>
<pdfrwt beam="1">  1       21 0.79990264E-02 0.49635024E+03</pdfrwt>
<pdfrwt beam="2">  1       21 0.16651813E+00 0.49635024E+03</pdfrwt>
<totfact> 0.23900642E+04</totfact>
</mgrwt>
</event>
<event>
 6    0  0.1539497E-004  0.5183872E+03  0.7546771E-02  0.1009088E+00
         21   -1    0    0  502  501  0.00000000000E+00  0.00000000000E+00  0.74514153272E+02  0.74514153272E+02  0.00000000000E+00 0.  1.
         21   -1    0    0  501  502 -0.00000000000E+00 -0.00000000000E+00 -0.90159137803E+03  0.90159137803E+03  0.00000000000E+00 0.  1.
      99925    2    1    2    0    0 -0.32013986461E+02 -0.13865671278E+02 -0.80077933103E+03  0.84360557099E+03  0.26306970603E+03 0.  0.
         25    1    3    3    0    0 -0.29170871379E+02  0.12426624076E+02 -0.29640071789E+03  0.32327427115E+03  0.12509000000E+03 0.  0.
         25    1    3    3    0    0 -0.28431150819E+01 -0.26292295353E+02 -0.50437861313E+03  0.52033129983E+03  0.12509000000E+03 0.  0.
         25    1    1    2    0    0  0.32013986461E+02  0.13865671278E+02 -0.26297893732E+02  0.13249996032E+03  0.12509000000E+03 0.  0.
<mgrwt>
<rscale>  2 0.51838718E+03</rscale>
<asrwt>0</asrwt>
<pdfrwt beam="1">  1       21 0.10957964E-01 0.51838718E+03</pdfrwt>
<pdfrwt beam="2">  1       21 0.13258696E+00 0.51838718E+03</pdfrwt>
<totfact> 0.25130290E+04</totfact>
</mgrwt>
</event>
<event>
 6    0  0.1539497E-004  0.4008628E+03  0.7546771E-02  0.1043481E+00
         21   -1    0    0  502  501  0.00000000000E+00  0.00000000000E+00  0.21068112594E+04  0.21068112594E+04  0.00000000000E+00 0.  1.
         21   -1    0    0  501  502 -0.00000000000E+00 -0.00000000000E+00 -0.19068032209E+02  0.19068032209E+02  0.00000000000E+00 0.  1.
      99925    2    1    2    0    0 -0.38993725419E+02 -0.96085198265E+01  0.12522611320E+04  0.12801307038E+04  0.26260967585E+03 0.  0.
         25    1    3    3    0    0 -0.24297361661E+02  0.27156275100E+02  0.51108499986E+03  0.52743076346E+03  0.12509000000E+03 0.  0.
         25    1    3    3    0    0 -0.14696363759E+02 -0.36764794926E+02  0.74117613217E+03  0.75269994039E+03  0.12509000000E+03 0.  0.
         25    1    1    2    0    0  0.38993725419E+02  0.96085198265E+01  0.83548209512E+03  0.84574858773E+03  0.12509000000E+03 0.  0.
<mgrwt>
<rscale>  2 0.40086279E+03</rscale>
<asrwt>0</asrwt>
<pdfrwt beam="1">  1       21 0.30982503E+00 0.40086279E+03</pdfrwt>
<pdfrwt beam="2">  1       21 0.28041238E-02 0.40086279E+03</pdfrwt>
<totfact> 0.18350981E+04</totfact>
</mgrwt>
</event>
<event>
 6    0  0.1539497E-004  0.4037139E+03  0.7546771E-02  0.1042501E+00
         21   -1    0    0  502  501  0.00000000000E+00  0.00000000000E+00  0.26387368848E+02  0.26387368848E+02  0.00000000000E+00 0.  1.
         21   -1    0    0  501  502 -0.00000000000E+00 -0.00000000000E+00 -0.15441568612E+04  0.15441568612E+04  0.00000000000E+00 0.  1.
      99925    2    1    2    0    0  0.97360949877E+01 -0.29725583627E+02 -0.11710212054E+04  0.12005979035E+04  0.26299479216E+03 0.  0.
         25    1    3    3    0    0 -0.24029994095E+02  0.12880048386E+02 -0.53290139071E+03  0.54806453688E+03  0.12509000000E+03 0.  0.
         25    1    3    3    0    0  0.33766089083E+02 -0.42605632013E+02 -0.63811981464E+03  0.65253336665E+03  0.12509000000E+03 0.  0.
         25    1    1    2    0    0 -0.97360949877E+01  0.29725583627E+02 -0.34674828696E+03  0.36994632649E+03  0.12509000000E+03 0.  0.
<mgrwt>
<rscale>  2 0.40371394E+03</rscale>
<asrwt>0</asrwt>
<pdfrwt beam="1">  1       21 0.38804958E-02 0.40371394E+03</pdfrwt>
<pdfrwt beam="2">  1       21 0.22708187E+00 0.40371394E+03</pdfrwt>
<totfact> 0.33635980E+04</totfact>
</mgrwt>
</event>
<event>
 6    0  0.1539497E-004  0.4573674E+03  0.7546771E-02  0.1025548E+00
         21   -1    0    0  502  501  0.00000000000E+00  0.00000000000E+00  0.17144726223E+03  0.17144726223E+03  0.00000000000E+00 0. -1.
         21   -1    0    0  501  502 -0.00000000000E+00 -0.00000000000E+00 -0.30502806718E+03  0.30502806718E+03  0.00000000000E+00 0. -1.
      99925    2    1    2    0    0  0.16464746902E+02  0.32080668867E+02  0.30268471306E+02  0.26720433134E+03  0.26302417593E+03 0.  0.
         25    1    1    2    0    0 -0.16464746902E+02 -0.32080668867E+02 -0.16384927626E+03  0.20927099808E+03  0.12509000000E+03 0.  0.
         25    1    3    3    0    0  0.35685633782E+02  0.37120921409E+02  0.37390153362E+02  0.14034585471E+03  0.12509000000E+03 0.  0.
         25    1    3    3    0    0 -0.19220886880E+02 -0.50402525412E+01 -0.71216820556E+01  0.12685847663E+03  0.12509000000E+03 0.  0.
<mgrwt>
<rscale>  2 0.45736737E+03</rscale>
<asrwt>0</asrwt>
<pdfrwt beam="1">  1       21 0.25212833E-01 0.45736737E+03</pdfrwt>
<pdfrwt beam="2">  1       21 0.44857068E-01 0.45736737E+03</pdfrwt>
<totfact> 0.65714300E+04</totfact>
</mgrwt>
</event>
<event>
 6    0  0.1539497E-004  0.4493543E+03  0.7546771E-02  0.1027915E+00
         21   -1    0    0  502  501  0.00000000000E+00  0.00000000000E+00  0.21722715551E+02  0.21722715551E+02  0.00000000000E+00 0.  1.
         21   -1    0    0  501  502 -0.00000000000E+00 -0.00000000000E+00 -0.23238265169E+04  0.23238265169E+04  0.00000000000E+00 0.  1.
      99925    2    1    2    0    0 -0.49780218504E+02  0.91029959127E+02 -0.13148119308E+04  0.13449707651E+04  0.26353637687E+03 0.  0.
         25    1    3    3    0    0 -0.62294094469E+02  0.67352501663E+02 -0.69715731028E+03  0.71420776883E+03  0.12509000000E+03 0.  0.
         25    1    3    3    0    0  0.12513875965E+02  0.23677457464E+02 -0.61765462055E+03  0.63076299627E+03  0.12509000000E+03 0.  0.
         25    1    1    2    0    0  0.49780218504E+02 -0.91029959127E+02 -0.98729187048E+03  0.10005784673E+04  0.12509000000E+03 0.  0.
<mgrwt>
<rscale>  2 0.44935430E+03</rscale>
<asrwt>0</asrwt>
<pdfrwt beam="1">  1       21 0.31945163E-02 0.44935430E+03</pdfrwt>
<pdfrwt beam="2">  1       21 0.34173927E+00 0.44935430E+03</pdfrwt>
<totfact> 0.92429822E+03</totfact>
</mgrwt>
</event>
<event>
 6    0  0.1539497E-004  0.4613791E+03  0.7546771E-02  0.1024382E+00
         21   -1    0    0  502  501  0.00000000000E+00  0.00000000000E+00  0.33353274822E+02  0.33353274822E+02  0.00000000000E+00 0. -1.
         21   -1    0    0  501  502 -0.00000000000E+00 -0.00000000000E+00 -0.15955754996E+04  0.15955754996E+04  0.00000000000E+00 0. -1.
      99925    2    1    2    0    0 -0.32958822653E+02  0.85333230722E+02 -0.70829681946E+03  0.76105542525E+03  0.26296944991E+03 0.  0.
         25    1    3    3    0    0 -0.12280191527E+02  0.17658144045E+02 -0.42255871468E+03  0.44120968780E+03  0.12509000000E+03 0.  0.
         25    1    1    2    0    0  0.32958822653E+02 -0.85333230722E+02 -0.85392540528E+03  0.86787334913E+03  0.12509000000E+03 0.  0.
         25    1    3    3    0    0 -0.20678631126E+02  0.67675086678E+02 -0.28573810478E+03  0.31984573745E+03  0.12509000000E+03 0.  0.
<mgrwt>
<rscale>  2 0.46137910E+03</rscale>
<asrwt>0</asrwt>
<pdfrwt beam="1">  1       21 0.49048934E-02 0.46137910E+03</pdfrwt>
<pdfrwt beam="2">  1       21 0.23464345E+00 0.46137910E+03</pdfrwt>
<totfact> 0.19785598E+04</totfact>
</mgrwt>
</event>
<event>
 6    0  0.1539497E-004  0.4320097E+03  0.7546771E-02  0.1033227E+00
         21   -1    0    0  502  501  0.00000000000E+00  0.00000000000E+00  0.12484106859E+04  0.12484106859E+04  0.00000000000E+00 0. -1.
         21   -1    0    0  501  502 -0.00000000000E+00 -0.00000000000E+00 -0.37373995643E+02  0.37373995643E+02  0.00000000000E+00 0. -1.
      99925    2    1    2    0    0  0.55323593840E+02 -0.70286267683E+02  0.75118563364E+03  0.80090184844E+03  0.26298869785E+03 0.  0.
         25    1    3    3    0    0 -0.67918769162E+01 -0.56206565919E+02  0.38257095502E+03  0.40646445278E+03  0.12509000000E+03 0.  0.
         25    1    1    2    0    0 -0.55323593840E+02  0.70286267683E+02  0.45985105659E+03  0.48488283307E+03  0.12509000000E+03 0.  0.
         25    1    3    3    0    0  0.62115470757E+02 -0.14079701764E+02  0.36861467862E+03  0.39443739567E+03  0.12509000000E+03 0.  0.
<mgrwt>
<rscale>  2 0.43200970E+03</rscale>
<asrwt>0</asrwt>
<pdfrwt beam="1">  1       21 0.18358978E+00 0.43200970E+03</pdfrwt>
<pdfrwt beam="2">  1       21 0.54961767E-02 0.43200970E+03</pdfrwt>
<totfact> 0.35459851E+04</totfact>
</mgrwt>
</event>
<event>
 6    0  0.1539497E-004  0.5124240E+03  0.7546771E-02  0.1010586E+00
         21   -1    0    0  502  501  0.00000000000E+00  0.00000000000E+00  0.37902977964E+02  0.37902977964E+02  0.00000000000E+00 0. -1.
         21   -1    0    0  501  502 -0.00000000000E+00 -0.00000000000E+00 -0.17319109385E+04  0.17319109385E+04  0.00000000000E+00 0. -1.
      99925    2    1    2    0    0 -0.54911157559E+02  0.41727815689E+02 -0.51668737481E+03  0.58385956848E+03  0.26300134333E+03 0.  0.
         25    1    3    3    0    0 -0.62273582243E+00 -0.90491136299E+01 -0.21480695789E+03  0.24874045010E+03  0.12509000000E+03 0.  0.
         25    1    1    2    0    0  0.54911157559E+02 -0.41727815689E+02 -0.11773205857E+04  0.11859543480E+04  0.12509000000E+03 0.  0.
         25    1    3    3    0    0 -0.54288421736E+02  0.50776929319E+02 -0.30188041692E+03  0.33511911839E+03  0.12509000000E+03 0.  0.
<mgrwt>
<rscale>  2 0.51242397E+03</rscale>
<asrwt>0</asrwt>
<pdfrwt beam="1">  1       21 0.55739690E-02 0.51242397E+03</pdfrwt>
<pdfrwt beam="2">  1       21 0.25469271E+00 0.51242397E+03</pdfrwt>
<totfact> 0.11701000E+04</totfact>
</mgrwt>
</event>
<event>
 6    0  0.1539497E-004  0.4007073E+03  0.7546771E-02  0.1043535E+00
         21   -1    0    0  502  501  0.00000000000E+00  0.00000000000E+00  0.18312095839E+03  0.18312095839E+03  0.00000000000E+00 0.  1.
         21   -1    0    0  501  502 -0.00000000000E+00 -0.00000000000E+00 -0.21920798480E+03  0.21920798480E+03  0.00000000000E+00 0.  1.
      99925    2    1    2    0    0 -0.28047326285E+01  0.15329547143E+02 -0.68478596741E+02  0.27217678813E+03  0.26296011911E+03 0.  0.
         25    1    1    2    0    0  0.28047326285E+01 -0.15329547143E+02  0.32391570327E+02  0.13015215507E+03  0.12509000000E+03 0.  0.
         25    1    3    3    0    0 -0.20190291636E+02  0.43096834444E+02 -0.41043712481E+02  0.13998956907E+03  0.12509000000E+03 0.  0.
         25    1    3    3    0    0  0.17385559007E+02 -0.27767287301E+02 -0.27434884260E+02  0.13218721905E+03  0.12509000000E+03 0.  0.
<mgrwt>
<rscale>  2 0.40070726E+03</rscale>
<asrwt>0</asrwt>
<pdfrwt beam="1">  1       21 0.26929553E-01 0.40070726E+03</pdfrwt>
<pdfrwt beam="2">  1       21 0.32236468E-01 0.40070726E+03</pdfrwt>
<totfact> 0.11484044E+05</totfact>
</mgrwt>
</event>
<event>
 6    0  0.1539497E-004  0.4546850E+03  0.7546771E-02  0.1026334E+00
         21   -1    0    0  502  501  0.00000000000E+00  0.00000000000E+00  0.30126519192E+03  0.30126519192E+03  0.00000000000E+00 0. -1.
         21   -1    0    0  501  502 -0.00000000000E+00 -0.00000000000E+00 -0.17155852564E+03  0.17155852564E+03  0.00000000000E+00 0. -1.
      99925    2    1    2    0    0 -0.29892494242E+02  0.33316166776E+02  0.18917865002E+03  0.32726289477E+03  0.26326585895E+03 0.  0.
         25    1    3    3    0    0 -0.39469512516E+02  0.70398490678E+01  0.57159341311E+02  0.14325536741E+03  0.12509000000E+03 0.  0.
         25    1    1    2    0    0  0.29892494242E+02 -0.33316166776E+02 -0.59471983739E+02  0.14556082279E+03  0.12509000000E+03 0.  0.
         25    1    3    3    0    0  0.95770182740E+01  0.26276317708E+02  0.13201930871E+03  0.18400752736E+03  0.12509000000E+03 0.  0.
<mgrwt>
<rscale>  2 0.45468500E+03</rscale>
<asrwt>0</asrwt>
<pdfrwt beam="1">  1       21 0.44303705E-01 0.45468500E+03</pdfrwt>
<pdfrwt beam="2">  1       21 0.25229195E-01 0.45468500E+03</pdfrwt>
<totfact> 0.67394643E+04</totfact>
</mgrwt>
</event>
<event>
 6    0  0.1539497E-004  0.6306948E+03  0.7546771E-02  0.9843694E-01
         21   -1    0    0  502  501  0.00000000000E+00  0.00000000000E+00  0.98913478420E+02  0.98913478420E+02  0.00000000000E+00 0.  1.
         21   -1    0    0  501  502 -0.00000000000E+00 -0.00000000000E+00 -0.10053633270E+04  0.10053633270E+04  0.00000000000E+00 0.  1.
      99925    2    1    2    0    0 -0.24143466139E+03 -0.23252164484E+02 -0.51076658556E+03  0.62360632410E+03  0.26300377120E+03 0.  0.
         25    1    3    3    0    0 -0.15434669174E+03  0.22913735151E+01 -0.33564791900E+03  0.39004510671E+03  0.12509000000E+03 0.  0.
         25    1    3    3    0    0 -0.87087969647E+02 -0.25543537999E+02 -0.17511866656E+03  0.23356121739E+03  0.12509000000E+03 0.  0.
         25    1    1    2    0    0  0.24143466139E+03  0.23252164484E+02 -0.39568326304E+03  0.48067048133E+03  0.12509000000E+03 0.  0.
<mgrwt>
<rscale>  2 0.63069480E+03</rscale>
<asrwt>0</asrwt>
<pdfrwt beam="1">  1       21 0.14546100E-01 0.63069480E+03</pdfrwt>
<pdfrwt beam="2">  1       21 0.14784754E+00 0.63069480E+03</pdfrwt>
<totfact> 0.10868892E+04</totfact>
</mgrwt>
</event>
<event>
 6    0  0.1539497E-004  0.4478200E+03  0.7546771E-02  0.1028374E+00
         21   -1    0    0  502  501  0.00000000000E+00  0.00000000000E+00  0.31019965686E+03  0.31019965686E+03  0.00000000000E+00 0. -1.
         21   -1    0    0  501  502 -0.00000000000E+00 -0.00000000000E+00 -0.16162396708E+03  0.16162396708E+03  0.00000000000E+00 0. -1.
      99925    2    1    2    0    0  0.87470120089E+02  0.58018658483E+02  0.11241850551E+03  0.30457519579E+03  0.26288960206E+03 0.  0.
         25    1    3    3    0    0  0.54432919465E+01  0.98766907676E+01  0.57257868115E+02  0.13803314822E+03  0.12509000000E+03 0.  0.
         25    1    1    2    0    0 -0.87470120089E+02 -0.58018658483E+02  0.36157184274E+02  0.16724842814E+03  0.12509000000E+03 0.  0.
         25    1    3    3    0    0  0.82026828143E+02  0.48141967716E+02  0.55160637391E+02  0.16654204757E+03  0.12509000000E+03 0.  0.
<mgrwt>
<rscale>  2 0.44782005E+03</rscale>
<asrwt>0</asrwt>
<pdfrwt beam="1">  1       21 0.45617597E-01 0.44782005E+03</pdfrwt>
<pdfrwt beam="2">  1       21 0.23768230E-01 0.44782005E+03</pdfrwt>
<totfact> 0.71275907E+04</totfact>
</mgrwt>
</event>
<event>
 6    0  0.1539497E-004  0.4473243E+03  0.7546771E-02  0.1028523E+00
         21   -1    0    0  502  501  0.00000000000E+00  0.00000000000E+00  0.91741777999E+03  0.91741777999E+03  0.00000000000E+00 0.  1.
         21   -1    0    0  501  502 -0.00000000000E+00 -0.00000000000E+00 -0.54527779556E+02  0.54527779556E+02  0.00000000000E+00 0.  1.
      99925    2    1    2    0    0 -0.77771913597E+02 -0.23665742253E+02  0.39978101345E+03  0.48540061833E+03  0.26302160302E+03 0.  0.
         25    1    1    2    0    0  0.77771913597E+02  0.23665742253E+02  0.46310898699E+03  0.48654494122E+03  0.12509000000E+03 0.  0.
         25    1    3    3    0    0 -0.20700999035E+01  0.63554391355E+01  0.20054073229E+03  0.23645035489E+03  0.12509000000E+03 0.  0.
         25    1    3    3    0    0 -0.75701813693E+02 -0.30021181389E+02  0.19924028116E+03  0.24895026344E+03  0.12509000000E+03 0.  0.
<mgrwt>
<rscale>  2 0.44732429E+03</rscale>
<asrwt>0</asrwt>
<pdfrwt beam="1">  1       21 0.13491437E+00 0.44732429E+03</pdfrwt>
<pdfrwt beam="2">  1       21 0.80187917E-02 0.44732429E+03</pdfrwt>
<totfact> 0.42774329E+04</totfact>
</mgrwt>
</event>
<event>
 6    0  0.1539497E-004  0.4818320E+03  0.7546771E-02  0.1018633E+00
         21   -1    0    0  502  501  0.00000000000E+00  0.00000000000E+00  0.65190689454E+03  0.65190689454E+03  0.00000000000E+00 0.  1.
         21   -1    0    0  501  502 -0.00000000000E+00 -0.00000000000E+00 -0.89031913115E+02  0.89031913115E+02  0.00000000000E+00 0.  1.
      99925    2    1    2    0    0  0.33101205629E+02 -0.10091971122E+03  0.47894592457E+03  0.55662366283E+03  0.26298331779E+03 0.  0.
         25    1    3    3    0    0  0.23685365727E+02 -0.60995464596E+02  0.32326091168E+03  0.35274150361E+03  0.12509000000E+03 0.  0.
         25    1    3    3    0    0  0.94158399017E+01 -0.39924246621E+02  0.15568501290E+03  0.20388215923E+03  0.12509000000E+03 0.  0.
         25    1    1    2    0    0 -0.33101205629E+02  0.10091971122E+03  0.83929056850E+02  0.18431514482E+03  0.12509000000E+03 0.  0.
<mgrwt>
<rscale>  2 0.48183200E+03</rscale>
<asrwt>0</asrwt>
<pdfrwt beam="1">  1       21 0.95868659E-01 0.48183200E+03</pdfrwt>
<pdfrwt beam="2">  1       21 0.13092929E-01 0.48183200E+03</pdfrwt>
<totfact> 0.41306819E+04</totfact>
</mgrwt>
</event>
<event>
 6    0  0.1539497E-004  0.4011501E+03  0.7546771E-02  0.1043382E+00
         21   -1    0    0  502  501  0.00000000000E+00  0.00000000000E+00  0.33165990673E+03  0.33165990673E+03  0.00000000000E+00 0. -1.
         21   -1    0    0  501  502 -0.00000000000E+00 -0.00000000000E+00 -0.12130003745E+03  0.12130003745E+03  0.00000000000E+00 0. -1.
      99925    2    1    2    0    0 -0.32317835584E+02  0.54189769958E+01  0.17925765232E+03  0.31996120806E+03  0.26299821470E+03 0.  0.
         25    1    1    2    0    0  0.32317835584E+02 -0.54189769958E+01  0.31102216957E+02  0.13299873611E+03  0.12509000000E+03 0.  0.
         25    1    3    3    0    0  0.20918759695E+02 -0.46035291181E+01  0.67841593734E+02  0.14390544440E+03  0.12509000000E+03 0.  0.
         25    1    3    3    0    0 -0.53236595280E+02  0.10022506114E+02  0.11141605859E+03  0.17605576366E+03  0.12509000000E+03 0.  0.
<mgrwt>
<rscale>  2 0.40115014E+03</rscale>
<asrwt>0</asrwt>
<pdfrwt beam="1">  1       21 0.48773516E-01 0.40115014E+03</pdfrwt>
<pdfrwt beam="2">  1       21 0.17838241E-01 0.40115014E+03</pdfrwt>
<totfact> 0.10801502E+05</totfact>
</mgrwt>
</event>
<event>
 6    0  0.1539497E-004  0.4553469E+03  0.7546771E-02  0.1026139E+00
         21   -1    0    0  502  501  0.00000000000E+00  0.00000000000E+00  0.15280935258E+03  0.15280935258E+03  0.00000000000E+00 0. -1.
         21   -1    0    0  501  502 -0.00000000000E+00 -0.00000000000E+00 -0.33921483086E+03  0.33921483086E+03  0.00000000000E+00 0. -1.
      99925    2    1    2    0    0 -0.21754001558E+02 -0.90694275030E+02 -0.18780898163E+03  0.33598519464E+03  0.26251695055E+03 0.  0.
         25    1    3    3    0    0  0.21537017399E+02 -0.23850667418E+02 -0.10270290419E+03  0.16500936968E+03  0.12509000000E+03 0.  0.
         25    1    3    3    0    0 -0.43291018957E+02 -0.66843607612E+02 -0.85106077436E+02  0.17097582495E+03  0.12509000000E+03 0.  0.
         25    1    1    2    0    0  0.21754001558E+02  0.90694275030E+02  0.14035033476E+01  0.15603898881E+03  0.12509000000E+03 0.  0.
<mgrwt>
<rscale>  2 0.45534689E+03</rscale>
<asrwt>0</asrwt>
<pdfrwt beam="1">  1       21 0.22471964E-01 0.45534689E+03</pdfrwt>
<pdfrwt beam="2">  1       21 0.49884533E-01 0.45534689E+03</pdfrwt>
<totfact> 0.65653705E+04</totfact>
</mgrwt>
</event>
<event>
 6    0  0.1539497E-004  0.4450192E+03  0.7546771E-02  0.1029218E+00
         21   -1    0    0  502  501  0.00000000000E+00  0.00000000000E+00  0.12755025125E+04  0.12755025125E+04  0.00000000000E+00 0.  1.
         21   -1    0    0  501  502 -0.00000000000E+00 -0.00000000000E+00 -0.38816476540E+02  0.38816476540E+02  0.00000000000E+00 0.  1.
      99925    2    1    2    0    0 -0.36079609000E+02  0.94733153042E+02  0.72315536744E+03  0.77613931265E+03  0.26298752577E+03 0.  0.
         25    1    3    3    0    0  0.89064947231E+01  0.28539551025E+02  0.40713641089E+03  0.42696767652E+03  0.12509000000E+03 0.  0.
         25    1    1    2    0    0  0.36079609000E+02 -0.94733153042E+02  0.51353066851E+03  0.53817967638E+03  0.12509000000E+03 0.  0.
         25    1    3    3    0    0 -0.44986103723E+02  0.66193602017E+02  0.31601895655E+03  0.34917163612E+03  0.12509000000E+03 0.  0.
<mgrwt>
<rscale>  2 0.44501916E+03</rscale>
<asrwt>0</asrwt>
<pdfrwt beam="1">  1       21 0.18757387E+00 0.44501916E+03</pdfrwt>
<pdfrwt beam="2">  1       21 0.57083062E-02 0.44501916E+03</pdfrwt>
<totfact> 0.31041949E+04</totfact>
</mgrwt>
</event>
<event>
 6    0  0.1539497E-004  0.4164374E+03  0.7546771E-02  0.1038232E+00
         21   -1    0    0  502  501  0.00000000000E+00  0.00000000000E+00  0.17570774835E+03  0.17570774835E+03  0.00000000000E+00 0. -1.
         21   -1    0    0  501  502 -0.00000000000E+00 -0.00000000000E+00 -0.24674510966E+03  0.24674510966E+03  0.00000000000E+00 0. -1.
      99925    2    1    2    0    0  0.25306108692E+02 -0.15673272448E+02  0.19089907836E+02  0.26542902750E+03  0.26306290778E+03 0.  0.
         25    1    3    3    0    0  0.35849021784E+02 -0.41133214692E+02  0.49513054524E+01  0.13656177078E+03  0.12509000000E+03 0.  0.
         25    1    1    2    0    0 -0.25306108692E+02  0.15673272448E+02 -0.90127269145E+02  0.15702383052E+03  0.12509000000E+03 0.  0.
         25    1    3    3    0    0 -0.10542913092E+02  0.25459942244E+02  0.14138602384E+02  0.12886725671E+03  0.12509000000E+03 0.  0.
<mgrwt>
<rscale>  2 0.41643740E+03</rscale>
<asrwt>0</asrwt>
<pdfrwt beam="1">  1       21 0.25839375E-01 0.41643740E+03</pdfrwt>
<pdfrwt beam="2">  1       21 0.36286045E-01 0.41643740E+03</pdfrwt>
<totfact> 0.97787255E+04</totfact>
</mgrwt>
</event>
<event>
 6    0  0.1539497E-004  0.4405669E+03  0.7546771E-02  0.1030573E+00
         21   -1    0    0  502  501  0.00000000000E+00  0.00000000000E+00  0.14446169341E+03  0.14446169341E+03  0.00000000000E+00 0. -1.
         21   -1    0    0  501  502 -0.00000000000E+00 -0.00000000000E+00 -0.33590080708E+03  0.33590080708E+03  0.00000000000E+00 0. -1.
      99925    2    1    2    0    0  0.87396039471E+02  0.30907564999E+02 -0.16013224832E+03  0.32155137617E+03  0.26298213870E+03 0.  0.
         25    1    1    2    0    0 -0.87396039471E+02 -0.30907564999E+02 -0.31306865354E+02  0.15881112432E+03  0.12509000000E+03 0.  0.
         25    1    3    3    0    0  0.64234182001E+01 -0.50091169058E+01 -0.78253266798E+02  0.14777494178E+03  0.12509000000E+03 0.  0.
         25    1    3    3    0    0  0.80972621271E+02  0.35916681904E+02 -0.81878981524E+02  0.17377643439E+03  0.12509000000E+03 0.  0.
<mgrwt>
<rscale>  2 0.44056690E+03</rscale>
<asrwt>0</asrwt>
<pdfrwt beam="1">  1       21 0.21244367E-01 0.44056690E+03</pdfrwt>
<pdfrwt beam="2">  1       21 0.49397177E-01 0.44056690E+03</pdfrwt>
<totfact> 0.74894012E+04</totfact>
</mgrwt>
</event>
<event>
 6    0  0.1539497E-004  0.4680268E+03  0.7546771E-02  0.1022479E+00
         21   -1    0    0  502  501  0.00000000000E+00  0.00000000000E+00  0.23182829108E+02  0.23182829108E+02  0.00000000000E+00 0. -1.
         21   -1    0    0  501  502 -0.00000000000E+00 -0.00000000000E+00 -0.23621908403E+04  0.23621908403E+04  0.00000000000E+00 0. -1.
      99925    2    1    2    0    0 -0.15842405309E+01 -0.12494493407E+03 -0.14322610666E+04  0.14615494026E+04  0.26294704198E+03 0.  0.
         25    1    1    2    0    0  0.15842405309E+01  0.12494493407E+03 -0.90674694453E+03  0.92382426677E+03  0.12509000000E+03 0.  0.
         25    1    3    3    0    0 -0.22576426830E+02 -0.98868250252E+02 -0.74692895283E+03  0.76409095966E+03  0.12509000000E+03 0.  0.
         25    1    3    3    0    0  0.20992186299E+02 -0.26076683823E+02 -0.68533211379E+03  0.69745844293E+03  0.12509000000E+03 0.  0.
<mgrwt>
<rscale>  2 0.46802678E+03</rscale>
<asrwt>0</asrwt>
<pdfrwt beam="1">  1       21 0.34092417E-02 0.46802678E+03</pdfrwt>
<pdfrwt beam="2">  1       21 0.34738079E+00 0.46802678E+03</pdfrwt>
<totfact> 0.75799009E+03</totfact>
</mgrwt>
</event>
<event>
 6    0  0.1539497E-004  0.3961015E+03  0.7546771E-02  0.1045138E+00
         21   -1    0    0  502  501  0.00000000000E+00  0.00000000000E+00  0.38682385551E+02  0.38682385551E+02  0.00000000000E+00 0. -1.
         21   -1    0    0  501  502 -0.00000000000E+00 -0.00000000000E+00 -0.10140041553E+04  0.10140041553E+04  0.00000000000E+00 0. -1.
      99925    2    1    2    0    0  0.35506015922E+02  0.75192876094E+01 -0.64085161972E+03  0.69375060477E+03  0.26321452518E+03 0.  0.
         25    1    3    3    0    0  0.54901588992E+02  0.30386996211E+01 -0.28587212059E+03  0.31684979974E+03  0.12509000000E+03 0.  0.
         25    1    3    3    0    0 -0.19395573070E+02  0.44805879883E+01 -0.35497949913E+03  0.37690080502E+03  0.12509000000E+03 0.  0.
         25    1    1    2    0    0 -0.35506015922E+02 -0.75192876094E+01 -0.33447015008E+03  0.35893593613E+03  0.12509000000E+03 0.  0.
<mgrwt>
<rscale>  2 0.39610150E+03</rscale>
<asrwt>0</asrwt>
<pdfrwt beam="1">  1       21 0.56885870E-02 0.39610150E+03</pdfrwt>
<pdfrwt beam="2">  1       21 0.14911823E+00 0.39610150E+03</pdfrwt>
<totfact> 0.60606363E+04</totfact>
</mgrwt>
</event>
<event>
 6    0  0.1539497E-004  0.4057841E+03  0.7546771E-02  0.1041795E+00
         21   -1    0    0  502  501  0.00000000000E+00  0.00000000000E+00  0.36651197826E+03  0.36651197826E+03  0.00000000000E+00 0. -1.
         21   -1    0    0  501  502 -0.00000000000E+00 -0.00000000000E+00 -0.11231604276E+03  0.11231604276E+03  0.00000000000E+00 0. -1.
      99925    2    1    2    0    0  0.49251486328E+02 -0.52595629623E+01  0.19855277091E+03  0.33323598218E+03  0.26300122638E+03 0.  0.
         25    1    3    3    0    0  0.51846089170E+02  0.27355129593E+02  0.10870616814E+03  0.17578640212E+03  0.12509000000E+03 0.  0.
         25    1    1    2    0    0 -0.49251486328E+02  0.52595629623E+01  0.55643164591E+02  0.14559203884E+03  0.12509000000E+03 0.  0.
         25    1    3    3    0    0 -0.25946028422E+01 -0.32614692556E+02  0.89846602769E+02  0.15744958007E+03  0.12509000000E+03 0.  0.
<mgrwt>
<rscale>  2 0.40578406E+03</rscale>
<asrwt>0</asrwt>
<pdfrwt beam="1">  1       21 0.53898820E-01 0.40578406E+03</pdfrwt>
<pdfrwt beam="2">  1       21 0.16517065E-01 0.40578406E+03</pdfrwt>
<totfact> 0.10073600E+05</totfact>
</mgrwt>
</event>
<event>
 6    0  0.1539497E-004  0.4829283E+03  0.7546771E-02  0.1018333E+00
         21   -1    0    0  502  501  0.00000000000E+00  0.00000000000E+00  0.13021962497E+03  0.13021962497E+03  0.00000000000E+00 0.  1.
         21   -1    0    0  501  502 -0.00000000000E+00 -0.00000000000E+00 -0.44774309299E+03  0.44774309299E+03  0.00000000000E+00 0.  1.
      99925    2    1    2    0    0  0.37160990954E+02 -0.90667716695E+02 -0.79379743005E+02  0.29167350063E+03  0.26300325715E+03 0.  0.
         25    1    1    2    0    0 -0.37160990954E+02  0.90667716695E+02 -0.23814372501E+03  0.28628921733E+03  0.12509000000E+03 0.  0.
         25    1    3    3    0    0  0.52241247423E+02 -0.69105588137E+02 -0.33029722036E+02  0.15570228284E+03  0.12509000000E+03 0.  0.
         25    1    3    3    0    0 -0.15080256469E+02 -0.21562128558E+02 -0.46350020969E+02  0.13597121779E+03  0.12509000000E+03 0.  0.
<mgrwt>
<rscale>  2 0.48292831E+03</rscale>
<asrwt>0</asrwt>
<pdfrwt beam="1">  1       21 0.19149945E-01 0.48292831E+03</pdfrwt>
<pdfrwt beam="2">  1       21 0.65844572E-01 0.48292831E+03</pdfrwt>
<totfact> 0.48437528E+04</totfact>
</mgrwt>
</event>
<event>
 6    0  0.1539497E-004  0.4246465E+03  0.7546771E-02  0.1035565E+00
         21   -1    0    0  502  501  0.00000000000E+00  0.00000000000E+00  0.10385237316E+03  0.10385237316E+03  0.00000000000E+00 0.  1.
         21   -1    0    0  501  502 -0.00000000000E+00 -0.00000000000E+00 -0.43408881548E+03  0.43408881548E+03  0.00000000000E+00 0.  1.
      99925    2    1    2    0    0  0.52888500683E+02 -0.46691236661E+02 -0.26594832135E+03  0.38059527773E+03  0.26295815392E+03 0.  0.
         25    1    3    3    0    0  0.47296603033E+02 -0.21901987898E+01 -0.17185014459E+03  0.21776534601E+03  0.12509000000E+03 0.  0.
         25    1    1    2    0    0 -0.52888500683E+02  0.46691236661E+02 -0.64288120967E+02  0.15734591092E+03  0.12509000000E+03 0.  0.
         25    1    3    3    0    0  0.55918976508E+01 -0.44501037872E+02 -0.94098176761E+02  0.16282993171E+03  0.12509000000E+03 0.  0.
<mgrwt>
<rscale>  2 0.42464646E+03</rscale>
<asrwt>0</asrwt>
<pdfrwt beam="1">  1       21 0.15272408E-01 0.42464646E+03</pdfrwt>
<pdfrwt beam="2">  1       21 0.63836591E-01 0.42464646E+03</pdfrwt>
<totfact> 0.80288455E+04</totfact>
</mgrwt>
</event>
<event>
 6    0  0.1539497E-004  0.4564188E+03  0.7546771E-02  0.1025825E+00
         21   -1    0    0  502  501  0.00000000000E+00  0.00000000000E+00  0.12184543497E+03  0.12184543497E+03  0.00000000000E+00 0. -1.
         21   -1    0    0  501  502 -0.00000000000E+00 -0.00000000000E+00 -0.42742294809E+03  0.42742294809E+03  0.00000000000E+00 0. -1.
      99925    2    1    2    0    0 -0.45711238640E+02  0.69278356231E+02 -0.28733746308E+03  0.39804267259E+03  0.26265213408E+03 0.  0.
         25    1    3    3    0    0  0.15319354526E+02  0.43484002813E+02 -0.15233512159E+03  0.20243279995E+03  0.12509000000E+03 0.  0.
         25    1    3    3    0    0 -0.61030593166E+02  0.25794353419E+02 -0.13500234149E+03  0.19560987265E+03  0.12509000000E+03 0.  0.
         25    1    1    2    0    0  0.45711238640E+02 -0.69278356231E+02 -0.18240050044E+02  0.15122571047E+03  0.12509000000E+03 0.  0.
<mgrwt>
<rscale>  2 0.45641882E+03</rscale>
<asrwt>0</asrwt>
<pdfrwt beam="1">  1       21 0.17918446E-01 0.45641882E+03</pdfrwt>
<pdfrwt beam="2">  1       21 0.62856316E-01 0.45641882E+03</pdfrwt>
<totfact> 0.61224686E+04</totfact>
</mgrwt>
</event>
<event>
 6    0  0.1539497E-004  0.4039985E+03  0.7546771E-02  0.1042404E+00
         21   -1    0    0  502  501  0.00000000000E+00  0.00000000000E+00  0.72655738085E+02  0.72655738085E+02  0.00000000000E+00 0. -1.
         21   -1    0    0  501  502 -0.00000000000E+00 -0.00000000000E+00 -0.56160315543E+03  0.56160315543E+03  0.00000000000E+00 0. -1.
      99925    2    1    2    0    0  0.16274505819E+02 -0.37324251981E+02 -0.27193261021E+03  0.38048558140E+03  0.26299044438E+03 0.  0.
         25    1    3    3    0    0  0.33378163048E+02 -0.36414766189E+02 -0.10205868568E+03  0.16883015249E+03  0.12509000000E+03 0.  0.
         25    1    1    2    0    0 -0.16274505819E+02  0.37324251981E+02 -0.21701480714E+03  0.25377331212E+03  0.12509000000E+03 0.  0.
         25    1    3    3    0    0 -0.17103657229E+02 -0.90948579173E+00 -0.16987392453E+03  0.21165542891E+03  0.12509000000E+03 0.  0.
<mgrwt>
<rscale>  2 0.40399847E+03</rscale>
<asrwt>0</asrwt>
<pdfrwt beam="1">  1       21 0.10684668E-01 0.40399847E+03</pdfrwt>
<pdfrwt beam="2">  1       21 0.82588692E-01 0.40399847E+03</pdfrwt>
<totfact> 0.86511294E+04</totfact>
</mgrwt>
</event>
<event>
 6    0  0.1539497E-004  0.4983633E+03  0.7546771E-02  0.1014207E+00
         21   -1    0    0  502  501  0.00000000000E+00  0.00000000000E+00  0.33126179528E+03  0.33126179528E+03  0.00000000000E+00 0. -1.
         21   -1    0    0  501  502 -0.00000000000E+00 -0.00000000000E+00 -0.18743936003E+03  0.18743936003E+03  0.00000000000E+00 0. -1.
      99925    2    1    2    0    0 -0.54008991876E+02  0.97733211378E+02  0.19204976143E+03  0.34422440929E+03  0.26294216336E+03 0.  0.
         25    1    3    3    0    0 -0.61119945609E+02  0.30721594700E+02  0.81723451416E+02  0.16433409489E+03  0.12509000000E+03 0.  0.
         25    1    3    3    0    0  0.71109537323E+01  0.67011616677E+02  0.11032631002E+03  0.17989031440E+03  0.12509000000E+03 0.  0.
         25    1    1    2    0    0  0.54008991876E+02 -0.97733211378E+02 -0.48227326194E+02  0.17447674602E+03  0.12509000000E+03 0.  0.
<mgrwt>
<rscale>  2 0.49836332E+03</rscale>
<asrwt>0</asrwt>
<pdfrwt beam="1">  1       21 0.48714970E-01 0.49836332E+03</pdfrwt>
<pdfrwt beam="2">  1       21 0.27564612E-01 0.49836332E+03</pdfrwt>
<totfact> 0.45987497E+04</totfact>
</mgrwt>
</event>
<event>
 6    0  0.1539497E-004  0.4549818E+03  0.7546771E-02  0.1026247E+00
         21   -1    0    0  502  501  0.00000000000E+00  0.00000000000E+00  0.16195915427E+04  0.16195915427E+04  0.00000000000E+00 0. -1.
         21   -1    0    0  501  502 -0.00000000000E+00 -0.00000000000E+00 -0.31953808976E+02  0.31953808976E+02  0.00000000000E+00 0. -1.
      99925    2    1    2    0    0  0.59106719046E+01  0.82102144753E+02  0.71731998755E+03  0.76843936391E+03  0.26301215420E+03 0.  0.
         25    1    1    2    0    0 -0.59106719046E+01 -0.82102144753E+02  0.87031774615E+03  0.88310598773E+03  0.12509000000E+03 0.  0.
         25    1    3    3    0    0  0.16383839049E+02  0.81198802042E+02  0.39625546321E+03  0.42370694573E+03  0.12509000000E+03 0.  0.
         25    1    3    3    0    0 -0.10473167144E+02  0.90334271079E+00  0.32106452434E+03  0.34473241819E+03  0.12509000000E+03 0.  0.
<mgrwt>
<rscale>  2 0.45498184E+03</rscale>
<asrwt>0</asrwt>
<pdfrwt beam="1">  1       21 0.23817517E+00 0.45498184E+03</pdfrwt>
<pdfrwt beam="2">  1       21 0.46990906E-02 0.45498184E+03</pdfrwt>
<totfact> 0.20292519E+04</totfact>
</mgrwt>
</event>
<event>
 6    0  0.1539497E-004  0.4346302E+03  0.7546771E-02  0.1032407E+00
         21   -1    0    0  502  501  0.00000000000E+00  0.00000000000E+00  0.12796021182E+03  0.12796021182E+03  0.00000000000E+00 0.  1.
         21   -1    0    0  501  502 -0.00000000000E+00 -0.00000000000E+00 -0.36906664240E+03  0.36906664240E+03  0.00000000000E+00 0.  1.
      99925    2    1    2    0    0 -0.70758654077E+02  0.47038730024E+02 -0.19710169835E+03  0.33953604875E+03  0.26308975590E+03 0.  0.
         25    1    3    3    0    0 -0.75222923591E+02  0.15464031281E+02 -0.93718636727E+02  0.17415026692E+03  0.12509000000E+03 0.  0.
         25    1    3    3    0    0  0.44642695139E+01  0.31574698743E+02 -0.10338306163E+03  0.16538578184E+03  0.12509000000E+03 0.  0.
         25    1    1    2    0    0  0.70758654077E+02 -0.47038730024E+02 -0.44004732227E+02  0.15749080547E+03  0.12509000000E+03 0.  0.
<mgrwt>
<rscale>  2 0.43463017E+03</rscale>
<asrwt>0</asrwt>
<pdfrwt beam="1">  1       21 0.18817679E-01 0.43463017E+03</pdfrwt>
<pdfrwt beam="2">  1       21 0.54274505E-01 0.43463017E+03</pdfrwt>
<totfact> 0.77230272E+04</totfact>
</mgrwt>
</event>
<event>
 6    0  0.1539497E-004  0.4564302E+03  0.7546771E-02  0.1025822E+00
         21   -1    0    0  502  501  0.00000000000E+00  0.00000000000E+00  0.14498410603E+03  0.14498410603E+03  0.00000000000E+00 0. -1.
         21   -1    0    0  501  502 -0.00000000000E+00 -0.00000000000E+00 -0.35922644315E+03  0.35922644315E+03  0.00000000000E+00 0. -1.
      99925    2    1    2    0    0 -0.82937399467E+02  0.55897455078E+02 -0.73168463824E+02  0.29078027124E+03  0.26305209433E+03 0.  0.
         25    1    1    2    0    0  0.82937399467E+02 -0.55897455078E+02 -0.14107387330E+03  0.21343027794E+03  0.12509000000E+03 0.  0.
         25    1    3    3    0    0 -0.37224731129E+01  0.21305353699E+02 -0.52331577595E+02  0.13730942071E+03  0.12509000000E+03 0.  0.
         25    1    3    3    0    0 -0.79214926354E+02  0.34592101378E+02 -0.20836886228E+02  0.15347085053E+03  0.12509000000E+03 0.  0.
<mgrwt>
<rscale>  2 0.45643017E+03</rscale>
<asrwt>0</asrwt>
<pdfrwt beam="1">  1       21 0.21321193E-01 0.45643017E+03</pdfrwt>
<pdfrwt beam="2">  1       21 0.52827416E-01 0.45643017E+03</pdfrwt>
<totfact> 0.64243462E+04</totfact>
</mgrwt>
</event>
<event>
 6    0  0.1539497E-004  0.4070360E+03  0.7546771E-02  0.1041370E+00
         21   -1    0    0  502  501  0.00000000000E+00  0.00000000000E+00  0.67751689060E+03  0.67751689060E+03  0.00000000000E+00 0. -1.
         21   -1    0    0  501  502 -0.00000000000E+00 -0.00000000000E+00 -0.61134374322E+02  0.61134374322E+02  0.00000000000E+00 0. -1.
      99925    2    1    2    0    0 -0.31502986918E+02 -0.47263756020E+02  0.41067641307E+03  0.49128754524E+03  0.26359445183E+03 0.  0.
         25    1    3    3    0    0 -0.21187294958E+02 -0.14288033505E+02  0.27685290319E+03  0.30487388782E+03  0.12509000000E+03 0.  0.
         25    1    3    3    0    0 -0.10315691960E+02 -0.32975722515E+02  0.13382350988E+03  0.18641365742E+03  0.12509000000E+03 0.  0.
         25    1    1    2    0    0  0.31502986918E+02  0.47263756020E+02  0.20570610320E+03  0.24736371968E+03  0.12509000000E+03 0.  0.
<mgrwt>
<rscale>  2 0.40703597E+03</rscale>
<asrwt>0</asrwt>
<pdfrwt beam="1">  1       21 0.99634833E-01 0.40703597E+03</pdfrwt>
<pdfrwt beam="2">  1       21 0.89903496E-02 0.40703597E+03</pdfrwt>
<totfact> 0.75568250E+04</totfact>
</mgrwt>
</event>
<event>
 6    0  0.1539497E-004  0.4023608E+03  0.7546771E-02  0.1042965E+00
         21   -1    0    0  502  501  0.00000000000E+00  0.00000000000E+00  0.18331972289E+03  0.18331972289E+03  0.00000000000E+00 0. -1.
         21   -1    0    0  501  502 -0.00000000000E+00 -0.00000000000E+00 -0.22078126523E+03  0.22078126523E+03  0.00000000000E+00 0. -1.
      99925    2    1    2    0    0  0.39300712276E+02 -0.41135026035E+01 -0.55524187631E+02  0.27168031698E+03  0.26299390171E+03 0.  0.
         25    1    3    3    0    0  0.21192897192E+02 -0.41920097046E+02 -0.35388640792E+02  0.13822553102E+03  0.12509000000E+03 0.  0.
         25    1    3    3    0    0  0.18107815084E+02  0.37806594443E+02 -0.20135546839E+02  0.13345478596E+03  0.12509000000E+03 0.  0.
         25    1    1    2    0    0 -0.39300712276E+02  0.41135026035E+01  0.18062645292E+02  0.13242067114E+03  0.12509000000E+03 0.  0.
<mgrwt>
<rscale>  2 0.40236083E+03</rscale>
<asrwt>0</asrwt>
<pdfrwt beam="1">  1       21 0.26958783E-01 0.40236083E+03</pdfrwt>
<pdfrwt beam="2">  1       21 0.32467833E-01 0.40236083E+03</pdfrwt>
<totfact> 0.11293265E+05</totfact>
</mgrwt>
</event>
<event>
 6    0  0.1539497E-004  0.3980318E+03  0.7546771E-02  0.1044463E+00
         21   -1    0    0  502  501  0.00000000000E+00  0.00000000000E+00  0.11573976716E+03  0.11573976716E+03  0.00000000000E+00 0. -1.
         21   -1    0    0  501  502 -0.00000000000E+00 -0.00000000000E+00 -0.34221014250E+03  0.34221014250E+03  0.00000000000E+00 0. -1.
      99925    2    1    2    0    0  0.22928355154E+02 -0.17592123857E+02 -0.18638498883E+03  0.32345255428E+03  0.26276795565E+03 0.  0.
         25    1    3    3    0    0 -0.27180148492E+02 -0.18457191968E+02 -0.98506602020E+02  0.16257455874E+03  0.12509000000E+03 0.  0.
         25    1    3    3    0    0  0.50108503646E+02  0.86506811051E+00 -0.87878386809E+02  0.16087799554E+03  0.12509000000E+03 0.  0.
         25    1    1    2    0    0 -0.22928355154E+02  0.17592123857E+02 -0.40085386508E+02  0.13449735538E+03  0.12509000000E+03 0.  0.
<mgrwt>
<rscale>  2 0.39803177E+03</rscale>
<asrwt>0</asrwt>
<pdfrwt beam="1">  1       21 0.17020554E-01 0.39803177E+03</pdfrwt>
<pdfrwt beam="2">  1       21 0.50325021E-01 0.39803177E+03</pdfrwt>
<totfact> 0.11044146E+05</totfact>
</mgrwt>
</event>
<event>
 6    0  0.1539497E-004  0.3962555E+03  0.7546771E-02  0.1045084E+00
         21   -1    0    0  502  501  0.00000000000E+00  0.00000000000E+00  0.17282526610E+03  0.17282526610E+03  0.00000000000E+00 0. -1.
         21   -1    0    0  501  502 -0.00000000000E+00 -0.00000000000E+00 -0.22713459893E+03  0.22713459893E+03  0.00000000000E+00 0. -1.
      99925    2    1    2    0    0 -0.57875433000E+01 -0.23035421771E+02 -0.75553322164E+01  0.26432221912E+03  0.26314449674E+03 0.  0.
         25    1    3    3    0    0  0.33312414690E+01 -0.42353580068E+02 -0.29950765920E+02  0.13546025023E+03  0.12509000000E+03 0.  0.
         25    1    3    3    0    0 -0.91187847690E+01  0.19318158296E+02  0.22395433703E+02  0.12886196889E+03  0.12509000000E+03 0.  0.
         25    1    1    2    0    0  0.57875433000E+01  0.23035421771E+02 -0.46754000614E+02  0.13563764591E+03  0.12509000000E+03 0.  0.
<mgrwt>
<rscale>  2 0.39625546E+03</rscale>
<asrwt>0</asrwt>
<pdfrwt beam="1">  1       21 0.25415480E-01 0.39625546E+03</pdfrwt>
<pdfrwt beam="2">  1       21 0.33402147E-01 0.39625546E+03</pdfrwt>
<totfact> 0.11983719E+05</totfact>
</mgrwt>
</event>
<event>
 6    0  0.1539497E-004  0.4455177E+03  0.7546771E-02  0.1029067E+00
         21   -1    0    0  502  501  0.00000000000E+00  0.00000000000E+00  0.11114752615E+03  0.11114752615E+03  0.00000000000E+00 0.  1.
         21   -1    0    0  501  502 -0.00000000000E+00 -0.00000000000E+00 -0.44644715850E+03  0.44644715850E+03  0.00000000000E+00 0.  1.
      99925    2    1    2    0    0 -0.60876597585E+02  0.68201921293E+02 -0.15072048645E+03  0.31660831284E+03  0.26299562072E+03 0.  0.
         25    1    1    2    0    0  0.60876597585E+02 -0.68201921293E+02 -0.18457914590E+03  0.24098637182E+03  0.12509000000E+03 0.  0.
         25    1    3    3    0    0 -0.37381071336E+02  0.57827844993E+02 -0.41842508112E+02  0.14879417911E+03  0.12509000000E+03 0.  0.
         25    1    3    3    0    0 -0.23495526249E+02  0.10374076301E+02 -0.10887797834E+03  0.16781413373E+03  0.12509000000E+03 0.  0.
<mgrwt>
<rscale>  2 0.44551766E+03</rscale>
<asrwt>0</asrwt>
<pdfrwt beam="1">  1       21 0.16345225E-01 0.44551766E+03</pdfrwt>
<pdfrwt beam="2">  1       21 0.65653992E-01 0.44551766E+03</pdfrwt>
<totfact> 0.66194539E+04</totfact>
</mgrwt>
</event>
<event>
 6    0  0.1539497E-004  0.4147714E+03  0.7546771E-02  0.1038782E+00
         21   -1    0    0  502  501  0.00000000000E+00  0.00000000000E+00  0.31206219777E+03  0.31206219777E+03  0.00000000000E+00 0.  1.
         21   -1    0    0  501  502 -0.00000000000E+00 -0.00000000000E+00 -0.13782134920E+03  0.13782134920E+03  0.00000000000E+00 0.  1.
      99925    2    1    2    0    0  0.17732160164E+02  0.27062340170E+02  0.18038451102E+03  0.32053111195E+03  0.26297304453E+03 0.  0.
         25    1    3    3    0    0  0.13073182053E+02 -0.24558234926E+02  0.71248961220E+02  0.14662174998E+03  0.12509000000E+03 0.  0.
         25    1    1    2    0    0 -0.17732160164E+02 -0.27062340170E+02 -0.61436624496E+01  0.12935243503E+03  0.12509000000E+03 0.  0.
         25    1    3    3    0    0  0.46589781110E+01  0.51620575096E+02  0.10913554980E+03  0.17390936197E+03  0.12509000000E+03 0.  0.
<mgrwt>
<rscale>  2 0.41477142E+03</rscale>
<asrwt>0</asrwt>
<pdfrwt beam="1">  1       21 0.45891500E-01 0.41477142E+03</pdfrwt>
<pdfrwt beam="2">  1       21 0.20267846E-01 0.41477142E+03</pdfrwt>
<totfact> 0.96194213E+04</totfact>
</mgrwt>
</event>
<event>
 6    0  0.1685024E-004  0.4171773E+03  0.7546771E-02  0.1037989E+00
         21   -1    0    0  502  501  0.00000000000E+00  0.00000000000E+00  0.10494782977E+03  0.10494782977E+03  0.00000000000E+00 0.  1.
         21   -1    0    0  501  502 -0.00000000000E+00 -0.00000000000E+00 -0.41457946253E+03  0.41457946253E+03  0.00000000000E+00 0.  1.
      99925    2    1    2    0    0 -0.52473610352E+02 -0.49147533631E+02 -0.20596530349E+03  0.34186701039E+03  0.26321547581E+03 0.  0.
         25    1    3    3    0    0 -0.22706371937E+01 -0.89450336010E+01 -0.59591948659E+02  0.13886640294E+03  0.12509000000E+03 0.  0.
         25    1    3    3    0    0 -0.50202973158E+02 -0.40202500030E+02 -0.14637335483E+03  0.20300060745E+03  0.12509000000E+03 0.  0.
         25    1    1    2    0    0  0.52473610352E+02  0.49147533631E+02 -0.10366632927E+03  0.17766028192E+03  0.12509000000E+03 0.  0.
<mgrwt>
<rscale>  2 0.41717725E+03</rscale>
<asrwt>0</asrwt>
<pdfrwt beam="1">  1       21 0.15433504E-01 0.41717725E+03</pdfrwt>
<pdfrwt beam="2">  1       21 0.60967569E-01 0.41717725E+03</pdfrwt>
<totfact> 0.87270509E+04</totfact>
</mgrwt>
</event>
<event>
 6    0  0.1539497E-004  0.4019956E+03  0.7546771E-02  0.1043091E+00
         21   -1    0    0  502  501  0.00000000000E+00  0.00000000000E+00  0.54128022940E+03  0.54128022940E+03  0.00000000000E+00 0. -1.
         21   -1    0    0  501  502 -0.00000000000E+00 -0.00000000000E+00 -0.74638091605E+02  0.74638091605E+02  0.00000000000E+00 0. -1.
      99925    2    1    2    0    0 -0.94850029653E+01  0.37793465736E+02  0.26456146118E+03  0.37508140669E+03  0.26301137537E+03 0.  0.
         25    1    1    2    0    0  0.94850029653E+01 -0.37793465736E+02  0.20208067662E+03  0.24083691431E+03  0.12509000000E+03 0.  0.
         25    1    3    3    0    0 -0.40729374787E+02  0.37479031274E+02  0.12967758301E+03  0.18848698467E+03  0.12509000000E+03 0.  0.
         25    1    3    3    0    0  0.31244371821E+02  0.31443446218E+00  0.13488387817E+03  0.18659442202E+03  0.12509000000E+03 0.  0.
<mgrwt>
<rscale>  2 0.40199564E+03</rscale>
<asrwt>0</asrwt>
<pdfrwt beam="1">  1       21 0.79600031E-01 0.40199564E+03</pdfrwt>
<pdfrwt beam="2">  1       21 0.10976190E-01 0.40199564E+03</pdfrwt>
<totfact> 0.89772838E+04</totfact>
</mgrwt>
</event>
<event>
 6    0  0.1539497E-004  0.4897872E+03  0.7546771E-02  0.1016480E+00
         21   -1    0    0  502  501  0.00000000000E+00  0.00000000000E+00  0.47079883220E+02  0.47079883220E+02  0.00000000000E+00 0. -1.
         21   -1    0    0  501  502 -0.00000000000E+00 -0.00000000000E+00 -0.12738535360E+04  0.12738535360E+04  0.00000000000E+00 0. -1.
      99925    2    1    2    0    0 -0.10993569293E+03  0.92062500137E+02 -0.76459915528E+03  0.82111931902E+03  0.26279974754E+03 0.  0.
         25    1    3    3    0    0 -0.82450785653E+02  0.36616840612E+02 -0.47952230275E+03  0.50371427616E+03  0.12509000000E+03 0.  0.
         25    1    1    2    0    0  0.10993569293E+03 -0.92062500137E+02 -0.46217449746E+03  0.49981410016E+03  0.12509000000E+03 0.  0.
         25    1    3    3    0    0 -0.27484907280E+02  0.55445659524E+02 -0.28507685253E+03  0.31740504287E+03  0.12509000000E+03 0.  0.
<mgrwt>
<rscale>  2 0.48978720E+03</rscale>
<asrwt>0</asrwt>
<pdfrwt beam="1">  1       21 0.69235131E-02 0.48978720E+03</pdfrwt>
<pdfrwt beam="2">  1       21 0.18733138E+00 0.48978720E+03</pdfrwt>
<totfact> 0.21944809E+04</totfact>
</mgrwt>
</event>
<event>
 6    0  0.1539497E-004  0.3968925E+03  0.7546771E-02  0.1044861E+00
         21   -1    0    0  502  501  0.00000000000E+00  0.00000000000E+00  0.86591544034E+02  0.86591544034E+02  0.00000000000E+00 0. -1.
         21   -1    0    0  501  502 -0.00000000000E+00 -0.00000000000E+00 -0.45478930445E+03  0.45478930445E+03  0.00000000000E+00 0. -1.
      99925    2    1    2    0    0 -0.24288669735E+02 -0.30243989127E+02 -0.25074373295E+03  0.36546156294E+03  0.26303059902E+03 0.  0.
         25    1    3    3    0    0  0.24827642591E+02  0.22787577491E+01 -0.12414620497E+03  0.17799267648E+03  0.12509000000E+03 0.  0.
         25    1    1    2    0    0  0.24288669735E+02  0.30243989127E+02 -0.11745402747E+03  0.17591928554E+03  0.12509000000E+03 0.  0.
         25    1    3    3    0    0 -0.49116312327E+02 -0.32522746876E+02 -0.12659752798E+03  0.18746888646E+03  0.12509000000E+03 0.  0.
<mgrwt>
<rscale>  2 0.39689247E+03</rscale>
<asrwt>0</asrwt>
<pdfrwt beam="1">  1       21 0.12734050E-01 0.39689247E+03</pdfrwt>
<pdfrwt beam="2">  1       21 0.66880781E-01 0.39689247E+03</pdfrwt>
<totfact> 0.10176737E+05</totfact>
</mgrwt>
</event>
<event>
 6    0  0.1539497E-004  0.4616076E+03  0.7546771E-02  0.1024316E+00
         21   -1    0    0  502  501  0.00000000000E+00  0.00000000000E+00  0.30066001021E+03  0.30066001021E+03  0.00000000000E+00 0. -1.
         21   -1    0    0  501  502 -0.00000000000E+00 -0.00000000000E+00 -0.17717818956E+03  0.17717818956E+03  0.00000000000E+00 0. -1.
      99925    2    1    2    0    0  0.60285700734E+02  0.56528841971E+02  0.16619302596E+03  0.32194839623E+03  0.26306039663E+03 0.  0.
         25    1    1    2    0    0 -0.60285700734E+02 -0.56528841971E+02 -0.42711205304E+02  0.15588980353E+03  0.12509000000E+03 0.  0.
         25    1    3    3    0    0  0.46677713962E+02  0.53014565770E+02  0.54448988984E+02  0.15362797163E+03  0.12509000000E+03 0.  0.
         25    1    3    3    0    0  0.13607986772E+02  0.35142762008E+01  0.11174403697E+03  0.16832042461E+03  0.12509000000E+03 0.  0.
<mgrwt>
<rscale>  2 0.46160761E+03</rscale>
<asrwt>0</asrwt>
<pdfrwt beam="1">  1       21 0.44214707E-01 0.46160761E+03</pdfrwt>
<pdfrwt beam="2">  1       21 0.26055616E-01 0.46160761E+03</pdfrwt>
<totfact> 0.63464316E+04</totfact>
</mgrwt>
</event>
<event>
 6    0  0.1539497E-004  0.4207960E+03  0.7546771E-02  0.1036808E+00
         21   -1    0    0  502  501  0.00000000000E+00  0.00000000000E+00  0.10293522095E+04  0.10293522095E+04  0.00000000000E+00 0. -1.
         21   -1    0    0  501  502 -0.00000000000E+00 -0.00000000000E+00 -0.43005024208E+02  0.43005024208E+02  0.00000000000E+00 0. -1.
      99925    2    1    2    0    0  0.36698885390E+02 -0.44079320277E+02  0.51195292937E+03  0.57840661592E+03  0.26299927144E+03 0.  0.
         25    1    1    2    0    0 -0.36698885390E+02  0.44079320277E+02  0.47439425592E+03  0.49395061779E+03  0.12509000000E+03 0.  0.
         25    1    3    3    0    0  0.37653777280E+02 -0.47531226100E+02  0.32447791864E+03  0.35300205691E+03  0.12509000000E+03 0.  0.
         25    1    3    3    0    0 -0.95489189006E+00  0.34519058233E+01  0.18747501073E+03  0.22540455901E+03  0.12509000000E+03 0.  0.
<mgrwt>
<rscale>  2 0.42079599E+03</rscale>
<asrwt>0</asrwt>
<pdfrwt beam="1">  1       21 0.15137531E+00 0.42079599E+03</pdfrwt>
<pdfrwt beam="2">  1       21 0.63242689E-02 0.42079599E+03</pdfrwt>
<totfact> 0.48072991E+04</totfact>
</mgrwt>
</event>
<event>
 6    0  0.1539497E-004  0.4066925E+03  0.7546771E-02  0.1041487E+00
         21   -1    0    0  502  501  0.00000000000E+00  0.00000000000E+00  0.38562509277E+02  0.38562509277E+02  0.00000000000E+00 0.  1.
         21   -1    0    0  501  502 -0.00000000000E+00 -0.00000000000E+00 -0.10722770649E+04  0.10722770649E+04  0.00000000000E+00 0.  1.
      99925    2    1    2    0    0  0.46587293960E+02 -0.27279374360E+02 -0.63518529656E+03  0.68966547875E+03  0.26317973212E+03 0.  0.
         25    1    3    3    0    0 -0.16681581854E+02 -0.37115017845E+01 -0.28366773944E+03  0.31049467776E+03  0.12509000000E+03 0.  0.
         25    1    3    3    0    0  0.63268875814E+02 -0.23567872576E+02 -0.35151755712E+03  0.37917080100E+03  0.12509000000E+03 0.  0.
         25    1    1    2    0    0 -0.46587293960E+02  0.27279374360E+02 -0.39852925907E+03  0.42117409542E+03  0.12509000000E+03 0.  0.
<mgrwt>
<rscale>  2 0.40669248E+03</rscale>
<asrwt>0</asrwt>
<pdfrwt beam="1">  1       21 0.56709572E-02 0.40669248E+03</pdfrwt>
<pdfrwt beam="2">  1       21 0.15768781E+00 0.40669248E+03</pdfrwt>
<totfact> 0.52164686E+04</totfact>
</mgrwt>
</event>
<event>
 6    0  0.1539497E-004  0.4346030E+03  0.7546771E-02  0.1032416E+00
         21   -1    0    0  502  501  0.00000000000E+00  0.00000000000E+00  0.13209419447E+03  0.13209419447E+03  0.00000000000E+00 0. -1.
         21   -1    0    0  501  502 -0.00000000000E+00 -0.00000000000E+00 -0.35747166404E+03  0.35747166404E+03  0.00000000000E+00 0. -1.
      99925    2    1    2    0    0  0.78145212579E+02 -0.44309497652E+02 -0.17032700428E+03  0.32601749362E+03  0.26307054553E+03 0.  0.
         25    1    3    3    0    0  0.51897673373E+02  0.76695341919E+00 -0.12154948126E+03  0.18197730961E+03  0.12509000000E+03 0.  0.
         25    1    1    2    0    0 -0.78145212579E+02  0.44309497652E+02 -0.55050465292E+02  0.16354836490E+03  0.12509000000E+03 0.  0.
         25    1    3    3    0    0  0.26247539206E+02 -0.45076451071E+02 -0.48777523022E+02  0.14404018400E+03  0.12509000000E+03 0.  0.
<mgrwt>
<rscale>  2 0.43460295E+03</rscale>
<asrwt>0</asrwt>
<pdfrwt beam="1">  1       21 0.19425617E-01 0.43460295E+03</pdfrwt>
<pdfrwt beam="2">  1       21 0.52569361E-01 0.43460295E+03</pdfrwt>
<totfact> 0.77875181E+04</totfact>
</mgrwt>
</event>
<event>
 6    0  0.1539497E-004  0.3964434E+03  0.7546771E-02  0.1045018E+00
         21   -1    0    0  502  501  0.00000000000E+00  0.00000000000E+00  0.10830522850E+03  0.10830522850E+03  0.00000000000E+00 0. -1.
         21   -1    0    0  501  502 -0.00000000000E+00 -0.00000000000E+00 -0.36278796258E+03  0.36278796258E+03  0.00000000000E+00 0. -1.
      99925    2    1    2    0    0  0.37391473323E+02  0.54707320571E+01 -0.17239844178E+03  0.31677731267E+03  0.26305625236E+03 0.  0.
         25    1    3    3    0    0 -0.16401196830E+02  0.20290000971E+02 -0.69477152611E+02  0.14544850027E+03  0.12509000000E+03 0.  0.
         25    1    1    2    0    0 -0.37391473323E+02 -0.54707320571E+01 -0.82084292301E+02  0.15431587841E+03  0.12509000000E+03 0.  0.
         25    1    3    3    0    0  0.53792670152E+02 -0.14819268914E+02 -0.10292128917E+03  0.17132881240E+03  0.12509000000E+03 0.  0.
<mgrwt>
<rscale>  2 0.39644335E+03</rscale>
<asrwt>0</asrwt>
<pdfrwt beam="1">  1       21 0.15927240E-01 0.39644335E+03</pdfrwt>
<pdfrwt beam="2">  1       21 0.53351171E-01 0.39644335E+03</pdfrwt>
<totfact> 0.11039445E+05</totfact>
</mgrwt>
</event>
<event>
 6    0  0.1539497E-004  0.3888028E+03  0.7546771E-02  0.1047727E+00
         21   -1    0    0  502  501  0.00000000000E+00  0.00000000000E+00  0.16132014774E+04  0.16132014774E+04  0.00000000000E+00 0.  1.
         21   -1    0    0  501  502 -0.00000000000E+00 -0.00000000000E+00 -0.23426648425E+02  0.23426648425E+02  0.00000000000E+00 0.  1.
      99925    2    1    2    0    0 -0.28617319082E+01 -0.80733530346E+01  0.11063661766E+04  0.11372236786E+04  0.26297948606E+03 0.  0.
         25    1    1    2    0    0  0.28617319082E+01  0.80733530346E+01  0.48340865243E+03  0.49940444720E+03  0.12509000000E+03 0.  0.
         25    1    3    3    0    0 -0.27390436576E+02  0.41343386318E+01  0.42355397054E+03  0.44250740427E+03  0.12509000000E+03 0.  0.
         25    1    3    3    0    0  0.24528704668E+02 -0.12207691666E+02  0.68281220602E+03  0.69471627437E+03  0.12509000000E+03 0.  0.
<mgrwt>
<rscale>  2 0.38880280E+03</rscale>
<asrwt>0</asrwt>
<pdfrwt beam="1">  1       21 0.23723544E+00 0.38880280E+03</pdfrwt>
<pdfrwt beam="2">  1       21 0.34450965E-02 0.38880280E+03</pdfrwt>
<totfact> 0.35769244E+04</totfact>
</mgrwt>
</event>
<event>
 6    0  0.1539497E-004  0.4200976E+03  0.7546771E-02  0.1037035E+00
         21   -1    0    0  502  501  0.00000000000E+00  0.00000000000E+00  0.28547378789E+03  0.28547378789E+03  0.00000000000E+00 0.  1.
         21   -1    0    0  501  502 -0.00000000000E+00 -0.00000000000E+00 -0.15455182952E+03  0.15455182952E+03  0.00000000000E+00 0.  1.
      99925    2    1    2    0    0 -0.24562989670E+02 -0.27361074296E+02  0.15502155743E+03  0.30743501585E+03  0.26293085946E+03 0.  0.
         25    1    3    3    0    0 -0.35111393055E+02 -0.30436346153E+02  0.46022639624E+02  0.14115513645E+03  0.12509000000E+03 0.  0.
         25    1    3    3    0    0  0.10548403385E+02  0.30752718569E+01  0.10899891780E+03  0.16627987940E+03  0.12509000000E+03 0.  0.
         25    1    1    2    0    0  0.24562989670E+02  0.27361074296E+02 -0.24099599059E+02  0.13259060156E+03  0.12509000000E+03 0.  0.
<mgrwt>
<rscale>  2 0.42009759E+03</rscale>
<asrwt>0</asrwt>
<pdfrwt beam="1">  1       21 0.41981440E-01 0.42009759E+03</pdfrwt>
<pdfrwt beam="2">  1       21 0.22728210E-01 0.42009759E+03</pdfrwt>
<totfact> 0.92912855E+04</totfact>
</mgrwt>
</event>
<event>
 5    0  0.1539497E-004  0.4580577E+03  0.7546771E-02  0.1025346E+00
         21   -1    0    0  502  501  0.00000000000E+00  0.00000000000E+00  0.76391246088E+02  0.76391246088E+02  0.00000000000E+00 0.  1.
         21   -1    0    0  501  502 -0.00000000000E+00 -0.00000000000E+00 -0.68665230246E+03  0.68665230246E+03  0.00000000000E+00 0.  1.
         25    1    1    2    0    0  0.14332061619E+02 -0.46327224512E+02 -0.26036664897E+03  0.29289916305E+03  0.12509000000E+03 0.  0.
         25    1    1    2    0    0  0.62417569210E+02 -0.36408684802E+02 -0.18110284761E+03  0.23166202707E+03  0.12509000000E+03 0.  0.
         25    1    1    2    0    0 -0.76749630828E+02  0.82735909314E+02 -0.16879155980E+03  0.23848235843E+03  0.12509000000E+03 0.  0.
<mgrwt>
<rscale>  2 0.45805775E+03</rscale>
<asrwt>0</asrwt>
<pdfrwt beam="1">  1       21 0.11234007E-01 0.45805775E+03</pdfrwt>
<pdfrwt beam="2">  1       21 0.10097828E+00 0.45805775E+03</pdfrwt>
<totfact> 0.48430866E+04</totfact>
</mgrwt>
</event>
<event>
 6    0  0.1539497E-004  0.4286929E+03  0.7546771E-02  0.1034274E+00
         21   -1    0    0  502  501  0.00000000000E+00  0.00000000000E+00  0.56949807682E+02  0.56949807682E+02  0.00000000000E+00 0.  1.
         21   -1    0    0  501  502 -0.00000000000E+00 -0.00000000000E+00 -0.80675263288E+03  0.80675263288E+03  0.00000000000E+00 0.  1.
      99925    2    1    2    0    0 -0.19111329354E+02 -0.64385273611E+02 -0.59026095417E+03  0.65013319400E+03  0.26411071457E+03 0.  0.
         25    1    3    3    0    0 -0.41791321120E+02 -0.55479543054E+02 -0.35114041691E+03  0.37917224939E+03  0.12509000000E+03 0.  0.
         25    1    1    2    0    0  0.19111329354E+02  0.64385273611E+02 -0.15954187103E+03  0.21356924657E+03  0.12509000000E+03 0.  0.
         25    1    3    3    0    0  0.22679991766E+02 -0.89057305570E+01 -0.23912053726E+03  0.27096094461E+03  0.12509000000E+03 0.  0.
<mgrwt>
<rscale>  2 0.42869293E+03</rscale>
<asrwt>0</asrwt>
<pdfrwt beam="1">  1       21 0.83749719E-02 0.42869293E+03</pdfrwt>
<pdfrwt beam="2">  1       21 0.11864009E+00 0.42869293E+03</pdfrwt>
<totfact> 0.55403342E+04</totfact>
</mgrwt>
</event>
<event>
 6    0  0.1539497E-004  0.5017148E+03  0.7546771E-02  0.1013332E+00
         21   -1    0    0  502  501  0.00000000000E+00  0.00000000000E+00  0.15666217874E+03  0.15666217874E+03  0.00000000000E+00 0. -1.
         21   -1    0    0  501  502 -0.00000000000E+00 -0.00000000000E+00 -0.40168876918E+03  0.40168876918E+03  0.00000000000E+00 0. -1.
      99925    2    1    2    0    0  0.11588077890E+03 -0.97405048647E+02 -0.17151479202E+03  0.34866644437E+03  0.26312519288E+03 0.  0.
         25    1    1    2    0    0 -0.11588077890E+03  0.97405048647E+02 -0.73511798418E+02  0.20968450354E+03  0.12509000000E+03 0.  0.
         25    1    3    3    0    0  0.44265615715E+02 -0.69763142426E+01 -0.65007176059E+02  0.14792415196E+03  0.12509000000E+03 0.  0.
         25    1    3    3    0    0  0.71615163182E+02 -0.90428734405E+02 -0.10650761596E+03  0.20074229241E+03  0.12509000000E+03 0.  0.
<mgrwt>
<rscale>  2 0.50171481E+03</rscale>
<asrwt>0</asrwt>
<pdfrwt beam="1">  1       21 0.23038556E-01 0.50171481E+03</pdfrwt>
<pdfrwt beam="2">  1       21 0.59071876E-01 0.50171481E+03</pdfrwt>
<totfact> 0.43043527E+04</totfact>
</mgrwt>
</event>
<event>
 6    0  0.1539497E-004  0.4242357E+03  0.7546771E-02  0.1035697E+00
         21   -1    0    0  502  501  0.00000000000E+00  0.00000000000E+00  0.28773577720E+03  0.28773577720E+03  0.00000000000E+00 0.  1.
         21   -1    0    0  501  502 -0.00000000000E+00 -0.00000000000E+00 -0.15637253246E+03  0.15637253246E+03  0.00000000000E+00 0.  1.
      99925    2    1    2    0    0  0.49765310305E+02  0.58853989744E+02  0.56873679081E+02  0.27937646177E+03  0.26244278195E+03 0.  0.
         25    1    1    2    0    0 -0.49765310305E+02 -0.58853989744E+02  0.74489565653E+02  0.16473184789E+03  0.12509000000E+03 0.  0.
         25    1    3    3    0    0  0.34829783292E+02 -0.19784802800E+01  0.43243590407E+01  0.12993550850E+03  0.12509000000E+03 0.  0.
         25    1    3    3    0    0  0.14935527013E+02  0.60832470024E+02  0.52549320040E+02  0.14944095327E+03  0.12509000000E+03 0.  0.
<mgrwt>
<rscale>  2 0.42423565E+03</rscale>
<asrwt>0</asrwt>
<pdfrwt beam="1">  1       21 0.42314085E-01 0.42423565E+03</pdfrwt>
<pdfrwt beam="2">  1       21 0.22995961E-01 0.42423565E+03</pdfrwt>
<totfact> 0.89292720E+04</totfact>
</mgrwt>
</event>
<event>
 6    0  0.1539497E-004  0.4303330E+03  0.7546771E-02  0.1033755E+00
         21   -1    0    0  502  501  0.00000000000E+00  0.00000000000E+00  0.35226128849E+03  0.35226128849E+03  0.00000000000E+00 0. -1.
         21   -1    0    0  501  502 -0.00000000000E+00 -0.00000000000E+00 -0.13142692394E+03  0.13142692394E+03  0.00000000000E+00 0. -1.
      99925    2    1    2    0    0  0.76942889528E+01 -0.83002686762E+02  0.11077874185E+03  0.29738631689E+03  0.26309322253E+03 0.  0.
         25    1    3    3    0    0  0.25099306983E+02 -0.11951270953E+02  0.30483393609E+02  0.13171770372E+03  0.12509000000E+03 0.  0.
         25    1    1    2    0    0 -0.76942889528E+01  0.83002686762E+02  0.11005562270E+03  0.18630189554E+03  0.12509000000E+03 0.  0.
         25    1    3    3    0    0 -0.17405018030E+02 -0.71051415809E+02  0.80295348238E+02  0.16566861317E+03  0.12509000000E+03 0.  0.
<mgrwt>
<rscale>  2 0.43033298E+03</rscale>
<asrwt>0</asrwt>
<pdfrwt beam="1">  1       21 0.51803131E-01 0.43033298E+03</pdfrwt>
<pdfrwt beam="2">  1       21 0.19327489E-01 0.43033298E+03</pdfrwt>
<totfact> 0.81206012E+04</totfact>
</mgrwt>
</event>
<event>
 6    0  0.1539497E-004  0.3975556E+03  0.7546771E-02  0.1044629E+00
         21   -1    0    0  502  501  0.00000000000E+00  0.00000000000E+00  0.11074612752E+04  0.11074612752E+04  0.00000000000E+00 0. -1.
         21   -1    0    0  501  502 -0.00000000000E+00 -0.00000000000E+00 -0.35678548996E+02  0.35678548996E+02  0.00000000000E+00 0. -1.
      99925    2    1    2    0    0 -0.27541897567E+02  0.28034794730E+02  0.74580441891E+03  0.79177979408E+03  0.26295723077E+03 0.  0.
         25    1    3    3    0    0 -0.50449826597E+02  0.15713054049E+02  0.43621713655E+03  0.45686429429E+03  0.12509000000E+03 0.  0.
         25    1    1    2    0    0  0.27541897567E+02 -0.28034794730E+02  0.32597830731E+03  0.35136003013E+03  0.12509000000E+03 0.  0.
         25    1    3    3    0    0  0.22907929031E+02  0.12321740681E+02  0.30958728236E+03  0.33491549980E+03  0.12509000000E+03 0.  0.
<mgrwt>
<rscale>  2 0.39755559E+03</rscale>
<asrwt>0</asrwt>
<pdfrwt beam="1">  1       21 0.16286193E+00 0.39755559E+03</pdfrwt>
<pdfrwt beam="2">  1       21 0.52468462E-02 0.39755559E+03</pdfrwt>
<totfact> 0.54698107E+04</totfact>
</mgrwt>
</event>
<event>
 6    0  0.1539497E-004  0.4460624E+03  0.7546771E-02  0.1028903E+00
         21   -1    0    0  502  501  0.00000000000E+00  0.00000000000E+00  0.93228239303E+02  0.93228239303E+02  0.00000000000E+00 0.  1.
         21   -1    0    0  501  502 -0.00000000000E+00 -0.00000000000E+00 -0.53356050866E+03  0.53356050866E+03  0.00000000000E+00 0.  1.
      99925    2    1    2    0    0  0.83321020057E+02  0.24874237933E+02 -0.36095809252E+03  0.45500723515E+03  0.26302037827E+03 0.  0.
         25    1    3    3    0    0  0.34974816496E+02 -0.25825568770E+02 -0.19469388905E+03  0.23546425700E+03  0.12509000000E+03 0.  0.
         25    1    3    3    0    0  0.48346203561E+02  0.50699806704E+02 -0.16626420347E+03  0.21954297815E+03  0.12509000000E+03 0.  0.
         25    1    1    2    0    0 -0.83321020057E+02 -0.24874237933E+02 -0.79374176838E+02  0.17178151281E+03  0.12509000000E+03 0.  0.
<mgrwt>
<rscale>  2 0.44606236E+03</rscale>
<asrwt>0</asrwt>
<pdfrwt beam="1">  1       21 0.13710035E-01 0.44606236E+03</pdfrwt>
<pdfrwt beam="2">  1       21 0.78464780E-01 0.44606236E+03</pdfrwt>
<totfact> 0.61268771E+04</totfact>
</mgrwt>
</event>
<event>
 6    0  0.1539497E-004  0.3924679E+03  0.7546771E-02  0.1046419E+00
         21   -1    0    0  502  501  0.00000000000E+00  0.00000000000E+00  0.62222739950E+03  0.62222739950E+03  0.00000000000E+00 0. -1.
         21   -1    0    0  501  502 -0.00000000000E+00 -0.00000000000E+00 -0.61886976891E+02  0.61886976891E+02  0.00000000000E+00 0. -1.
      99925    2    1    2    0    0 -0.17369375967E+02  0.26703528468E+01  0.34128887776E+03  0.43125094802E+03  0.26304078787E+03 0.  0.
         25    1    3    3    0    0 -0.27967052054E+02 -0.44808279311E+01  0.22995438418E+03  0.26330355243E+03  0.12509000000E+03 0.  0.
         25    1    1    2    0    0  0.17369375967E+02 -0.26703528468E+01  0.21905154486E+03  0.25286342838E+03  0.12509000000E+03 0.  0.
         25    1    3    3    0    0  0.10597676086E+02  0.71511807780E+01  0.11133449358E+03  0.16794739559E+03  0.12509000000E+03 0.  0.
<mgrwt>
<rscale>  2 0.39246795E+03</rscale>
<asrwt>0</asrwt>
<pdfrwt beam="1">  1       21 0.91504026E-01 0.39246795E+03</pdfrwt>
<pdfrwt beam="2">  1       21 0.91010264E-02 0.39246795E+03</pdfrwt>
<totfact> 0.90944842E+04</totfact>
</mgrwt>
</event>
<event>
 6    0  0.1539497E-004  0.4411266E+03  0.7546771E-02  0.1030402E+00
         21   -1    0    0  502  501  0.00000000000E+00  0.00000000000E+00  0.14427400359E+03  0.14427400359E+03  0.00000000000E+00 0. -1.
         21   -1    0    0  501  502 -0.00000000000E+00 -0.00000000000E+00 -0.33719296891E+03  0.33719296891E+03  0.00000000000E+00 0. -1.
      99925    2    1    2    0    0 -0.45019988022E+02  0.52379595534E+02 -0.20148954086E+03  0.33831885265E+03  0.26285202992E+03 0.  0.
         25    1    1    2    0    0  0.45019988022E+02 -0.52379595534E+02  0.85705755355E+01  0.14314811984E+03  0.12509000000E+03 0.  0.
         25    1    3    3    0    0  0.89318875136E+01  0.12157595557E+02 -0.66975687971E+02  0.14269140347E+03  0.12509000000E+03 0.  0.
         25    1    3    3    0    0 -0.53951875535E+02  0.40221999977E+02 -0.13451385289E+03  0.19562744919E+03  0.12509000000E+03 0.  0.
<mgrwt>
<rscale>  2 0.44112665E+03</rscale>
<asrwt>0</asrwt>
<pdfrwt beam="1">  1       21 0.21216766E-01 0.44112665E+03</pdfrwt>
<pdfrwt beam="2">  1       21 0.49587200E-01 0.44112665E+03</pdfrwt>
<totfact> 0.74462617E+04</totfact>
</mgrwt>
</event>
<event>
 6    0  0.1539497E-004  0.4662906E+03  0.7546771E-02  0.1022972E+00
         21   -1    0    0  502  501  0.00000000000E+00  0.00000000000E+00  0.11584012229E+03  0.11584012229E+03  0.00000000000E+00 0.  1.
         21   -1    0    0  501  502 -0.00000000000E+00 -0.00000000000E+00 -0.46923927168E+03  0.46923927168E+03  0.00000000000E+00 0.  1.
      99925    2    1    2    0    0  0.13810449908E+01 -0.12201016804E+03 -0.19648785228E+03  0.35022400942E+03  0.26298477578E+03 0.  0.
         25    1    3    3    0    0 -0.36979824248E+02 -0.44515159253E+02 -0.95310172808E+02  0.16757280193E+03  0.12509000000E+03 0.  0.
         25    1    3    3    0    0  0.38360869239E+02 -0.77495008791E+02 -0.10117767947E+03  0.18265120750E+03  0.12509000000E+03 0.  0.
         25    1    1    2    0    0 -0.13810449908E+01  0.12201016804E+03 -0.15691129711E+03  0.23485538455E+03  0.12509000000E+03 0.  0.
<mgrwt>
<rscale>  2 0.46629062E+03</rscale>
<asrwt>0</asrwt>
<pdfrwt beam="1">  1       21 0.17035312E-01 0.46629062E+03</pdfrwt>
<pdfrwt beam="2">  1       21 0.69005774E-01 0.46629062E+03</pdfrwt>
<totfact> 0.54570168E+04</totfact>
</mgrwt>
</event>
<event>
 6    0  0.1539497E-004  0.4462592E+03  0.7546771E-02  0.1028843E+00
         21   -1    0    0  502  501  0.00000000000E+00  0.00000000000E+00  0.51646627826E+02  0.51646627826E+02  0.00000000000E+00 0. -1.
         21   -1    0    0  501  502 -0.00000000000E+00 -0.00000000000E+00 -0.96398959457E+03  0.96398959457E+03  0.00000000000E+00 0. -1.
      99925    2    1    2    0    0 -0.89062377116E+02 -0.26382941703E+02 -0.46856722388E+03  0.54530380306E+03  0.26300727689E+03 0.  0.
         25    1    3    3    0    0 -0.84167096778E+02 -0.20124397781E+02 -0.28455660265E+03  0.32265935563E+03  0.12509000000E+03 0.  0.
         25    1    1    2    0    0  0.89062377116E+02  0.26382941703E+02 -0.44377574286E+03  0.47033241934E+03  0.12509000000E+03 0.  0.
         25    1    3    3    0    0 -0.48952803378E+01 -0.62585439222E+01 -0.18401062123E+03  0.22264444742E+03  0.12509000000E+03 0.  0.
<mgrwt>
<rscale>  2 0.44625917E+03</rscale>
<asrwt>0</asrwt>
<pdfrwt beam="1">  1       21 0.75950931E-02 0.44625917E+03</pdfrwt>
<pdfrwt beam="2">  1       21 0.14176316E+00 0.44625917E+03</pdfrwt>
<totfact> 0.41312417E+04</totfact>
</mgrwt>
</event>
<event>
 6    0  0.1539497E-004  0.4040217E+03  0.7546771E-02  0.1042396E+00
         21   -1    0    0  502  501  0.00000000000E+00  0.00000000000E+00  0.41362015490E+03  0.41362015490E+03  0.00000000000E+00 0.  1.
         21   -1    0    0  501  502 -0.00000000000E+00 -0.00000000000E+00 -0.98661492864E+02  0.98661492864E+02  0.00000000000E+00 0.  1.
      99925    2    1    2    0    0 -0.52276245576E+01  0.50426554812E+02  0.23230722934E+03  0.35401310094E+03  0.26227554469E+03 0.  0.
         25    1    1    2    0    0  0.52276245576E+01 -0.50426554812E+02  0.82651432691E+02  0.15826854683E+03  0.12509000000E+03 0.  0.
         25    1    3    3    0    0 -0.12066294699E+02  0.56282608671E+02  0.15196911806E+03  0.20507425106E+03  0.12509000000E+03 0.  0.
         25    1    3    3    0    0  0.68386701415E+01 -0.58560538597E+01  0.80338111289E+02  0.14893884987E+03  0.12509000000E+03 0.  0.
<mgrwt>
<rscale>  2 0.40402169E+03</rscale>
<asrwt>0</asrwt>
<pdfrwt beam="1">  1       21 0.60826493E-01 0.40402169E+03</pdfrwt>
<pdfrwt beam="2">  1       21 0.14509043E-01 0.40402169E+03</pdfrwt>
<totfact> 0.98611240E+04</totfact>
</mgrwt>
</event>
<event>
 6    0  0.1539497E-004  0.4278386E+03  0.7546771E-02  0.1034545E+00
         21   -1    0    0  502  501  0.00000000000E+00  0.00000000000E+00  0.66653298341E+03  0.66653298341E+03  0.00000000000E+00 0.  1.
         21   -1    0    0  501  502 -0.00000000000E+00 -0.00000000000E+00 -0.68655979270E+02  0.68655979270E+02  0.00000000000E+00 0.  1.
      99925    2    1    2    0    0  0.42132901846E+02  0.63211145361E+02  0.45244668855E+03  0.52886805945E+03  0.26310185863E+03 0.  0.
         25    1    1    2    0    0 -0.42132901846E+02 -0.63211145361E+02  0.14543031559E+03  0.20632090323E+03  0.12509000000E+03 0.  0.
         25    1    3    3    0    0  0.59010984963E+02  0.30718431143E+02  0.20503773315E+03  0.24922660065E+03  0.12509000000E+03 0.  0.
         25    1    3    3    0    0 -0.16878083118E+02  0.32492714218E+02  0.24740895541E+03  0.27964145880E+03  0.12509000000E+03 0.  0.
<mgrwt>
<rscale>  2 0.42783864E+03</rscale>
<asrwt>0</asrwt>
<pdfrwt beam="1">  1       21 0.98019553E-01 0.42783864E+03</pdfrwt>
<pdfrwt beam="2">  1       21 0.10096468E-01 0.42783864E+03</pdfrwt>
<totfact> 0.63557676E+04</totfact>
</mgrwt>
</event>
<event>
 6    0  0.1539497E-004  0.4655353E+03  0.7546771E-02  0.1023188E+00
         21   -1    0    0  502  501  0.00000000000E+00  0.00000000000E+00  0.15424197300E+03  0.15424197300E+03  0.00000000000E+00 0.  1.
         21   -1    0    0  501  502 -0.00000000000E+00 -0.00000000000E+00 -0.35127123235E+03  0.35127123235E+03  0.00000000000E+00 0.  1.
      99925    2    1    2    0    0 -0.38822045160E+02  0.29796836133E+02 -0.38609012081E+00  0.26737239251E+03  0.26285517796E+03 0.  0.
         25    1    3    3    0    0  0.74120736737E+01 -0.16021219182E+02 -0.22030823367E+01  0.12634864452E+03  0.12509000000E+03 0.  0.
         25    1    3    3    0    0 -0.46234118833E+02  0.45818055315E+02  0.18169922159E+01  0.14102374799E+03  0.12509000000E+03 0.  0.
         25    1    1    2    0    0  0.38822045160E+02 -0.29796836133E+02 -0.19664316923E+03  0.23814081284E+03  0.12509000000E+03 0.  0.
<mgrwt>
<rscale>  2 0.46553525E+03</rscale>
<asrwt>0</asrwt>
<pdfrwt beam="1">  1       21 0.22682643E-01 0.46553525E+03</pdfrwt>
<pdfrwt beam="2">  1       21 0.51657534E-01 0.46553525E+03</pdfrwt>
<totfact> 0.59731269E+04</totfact>
</mgrwt>
</event>
<event>
 6    0  0.1539497E-004  0.4352122E+03  0.7546771E-02  0.1032226E+00
         21   -1    0    0  502  501  0.00000000000E+00  0.00000000000E+00  0.44784076497E+03  0.44784076497E+03  0.00000000000E+00 0.  1.
         21   -1    0    0  501  502 -0.00000000000E+00 -0.00000000000E+00 -0.10573491531E+03  0.10573491531E+03  0.00000000000E+00 0.  1.
      99925    2    1    2    0    0  0.12781267526E+02 -0.86272911794E+02  0.26210869373E+03  0.38137396959E+03  0.26294250558E+03 0.  0.
         25    1    1    2    0    0 -0.12781267526E+02  0.86272911794E+02  0.79997155931E+02  0.17220171069E+03  0.12509000000E+03 0.  0.
         25    1    3    3    0    0  0.29581518101E+02 -0.10000126143E+02  0.10946983478E+03  0.16913373869E+03  0.12509000000E+03 0.  0.
         25    1    3    3    0    0 -0.16800250574E+02 -0.76272785651E+02  0.15263885895E+03  0.21224023090E+03  0.12509000000E+03 0.  0.
<mgrwt>
<rscale>  2 0.43521216E+03</rscale>
<asrwt>0</asrwt>
<pdfrwt beam="1">  1       21 0.65858936E-01 0.43521216E+03</pdfrwt>
<pdfrwt beam="2">  1       21 0.15549252E-01 0.43521216E+03</pdfrwt>
<totfact> 0.72301589E+04</totfact>
</mgrwt>
</event>
<event>
 6    0  0.1539497E-004  0.4390375E+03  0.7546771E-02  0.1031043E+00
         21   -1    0    0  502  501  0.00000000000E+00  0.00000000000E+00  0.49297519334E+02  0.49297519334E+02  0.00000000000E+00 0. -1.
         21   -1    0    0  501  502 -0.00000000000E+00 -0.00000000000E+00 -0.97750331999E+03  0.97750331999E+03  0.00000000000E+00 0. -1.
      99925    2    1    2    0    0  0.28216850695E+02 -0.47145093185E+02 -0.78118134508E+03  0.82609570956E+03  0.26300375850E+03 0.  0.
         25    1    1    2    0    0 -0.28216850695E+02  0.47145093185E+02 -0.14702445558E+03  0.20070512976E+03  0.12509000000E+03 0.  0.
         25    1    3    3    0    0 -0.11817703101E+02  0.79634306376E+01 -0.34556986567E+03  0.36778949753E+03  0.12509000000E+03 0.  0.
         25    1    3    3    0    0  0.40034553796E+02 -0.55108523822E+02 -0.43561147941E+03  0.45830621203E+03  0.12509000000E+03 0.  0.
<mgrwt>
<rscale>  2 0.43903753E+03</rscale>
<asrwt>0</asrwt>
<pdfrwt beam="1">  1       21 0.72496359E-02 0.43903753E+03</pdfrwt>
<pdfrwt beam="2">  1       21 0.14375048E+00 0.43903753E+03</pdfrwt>
<totfact> 0.43288585E+04</totfact>
</mgrwt>
</event>
<event>
 6    0  0.1539497E-004  0.3939644E+03  0.7546771E-02  0.1045890E+00
         21   -1    0    0  502  501  0.00000000000E+00  0.00000000000E+00  0.30718059159E+03  0.30718059159E+03  0.00000000000E+00 0. -1.
         21   -1    0    0  501  502 -0.00000000000E+00 -0.00000000000E+00 -0.12631650703E+03  0.12631650703E+03  0.00000000000E+00 0. -1.
      99925    2    1    2    0    0 -0.80435233016E+01 -0.26699111496E+02  0.13814996105E+03  0.29840622080E+03  0.26302722302E+03 0.  0.
         25    1    3    3    0    0 -0.14623816742E+02 -0.51566242766E+02  0.82130807494E+02  0.15895254339E+03  0.12509000000E+03 0.  0.
         25    1    3    3    0    0  0.65802934408E+01  0.24867131269E+02  0.56019153558E+02  0.13945367742E+03  0.12509000000E+03 0.  0.
         25    1    1    2    0    0  0.80435233016E+01  0.26699111496E+02  0.42714123514E+02  0.13509087782E+03  0.12509000000E+03 0.  0.
<mgrwt>
<rscale>  2 0.39396436E+03</rscale>
<asrwt>0</asrwt>
<pdfrwt beam="1">  1       21 0.45173616E-01 0.39396436E+03</pdfrwt>
<pdfrwt beam="2">  1       21 0.18575957E-01 0.39396436E+03</pdfrwt>
<totfact> 0.11776171E+05</totfact>
</mgrwt>
</event>
<event>
 6    0  0.1539497E-004  0.4132559E+03  0.7546771E-02  0.1039284E+00
         21   -1    0    0  502  501  0.00000000000E+00  0.00000000000E+00  0.10463891063E+03  0.10463891063E+03  0.00000000000E+00 0.  1.
         21   -1    0    0  501  502 -0.00000000000E+00 -0.00000000000E+00 -0.40802318896E+03  0.40802318896E+03  0.00000000000E+00 0.  1.
      99925    2    1    2    0    0 -0.20042050702E+02 -0.18258109459E+02 -0.12290911809E+03  0.29140696650E+03  0.26282375550E+03 0.  0.
         25    1    3    3    0    0 -0.14432411767E+02 -0.48589717050E+02 -0.71008928854E+02  0.15250911838E+03  0.12509000000E+03 0.  0.
         25    1    3    3    0    0 -0.56096389345E+01  0.30331607590E+02 -0.51900189236E+02  0.13889784811E+03  0.12509000000E+03 0.  0.
         25    1    1    2    0    0  0.20042050702E+02  0.18258109459E+02 -0.18047516024E+03  0.22125513309E+03  0.12509000000E+03 0.  0.
<mgrwt>
<rscale>  2 0.41325586E+03</rscale>
<asrwt>0</asrwt>
<pdfrwt beam="1">  1       21 0.15388075E-01 0.41325586E+03</pdfrwt>
<pdfrwt beam="2">  1       21 0.60003410E-01 0.41325586E+03</pdfrwt>
<totfact> 0.90941896E+04</totfact>
</mgrwt>
</event>
<event>
 6    0  0.1539497E-004  0.3900769E+03  0.7546771E-02  0.1047271E+00
         21   -1    0    0  502  501  0.00000000000E+00  0.00000000000E+00  0.13856692505E+03  0.13856692505E+03  0.00000000000E+00 0.  1.
         21   -1    0    0  501  502 -0.00000000000E+00 -0.00000000000E+00 -0.27452432676E+03  0.27452432676E+03  0.00000000000E+00 0.  1.
      99925    2    1    2    0    0  0.50350790236E+01 -0.80546384629E+01 -0.10874011375E+03  0.28472257150E+03  0.26296825124E+03 0.  0.
         25    1    3    3    0    0  0.33791550416E+02 -0.12874453339E+01 -0.82280324696E+02  0.15349620949E+03  0.12509000000E+03 0.  0.
         25    1    1    2    0    0 -0.50350790236E+01  0.80546384629E+01 -0.27217287960E+02  0.12836868031E+03  0.12509000000E+03 0.  0.
         25    1    3    3    0    0 -0.28756471392E+02 -0.67671931290E+01 -0.26459789055E+02  0.13122636201E+03  0.12509000000E+03 0.  0.
<mgrwt>
<rscale>  2 0.39007687E+03</rscale>
<asrwt>0</asrwt>
<pdfrwt beam="1">  1       21 0.20377489E-01 0.39007687E+03</pdfrwt>
<pdfrwt beam="2">  1       21 0.40371224E-01 0.39007687E+03</pdfrwt>
<totfact> 0.12486548E+05</totfact>
</mgrwt>
</event>
<event>
 6    0  0.1539497E-004  0.4098146E+03  0.7546771E-02  0.1040433E+00
         21   -1    0    0  502  501  0.00000000000E+00  0.00000000000E+00  0.64124505291E+02  0.64124505291E+02  0.00000000000E+00 0. -1.
         21   -1    0    0  501  502 -0.00000000000E+00 -0.00000000000E+00 -0.65477312792E+03  0.65477312792E+03  0.00000000000E+00 0. -1.
      99925    2    1    2    0    0  0.16849589199E+02  0.32606808928E+02 -0.30156213565E+03  0.40177680814E+03  0.26294061925E+03 0.  0.
         25    1    3    3    0    0 -0.11338418609E+02 -0.82368784523E+01 -0.18488023400E+03  0.22366183163E+03  0.12509000000E+03 0.  0.
         25    1    3    3    0    0  0.28188007808E+02  0.40843687380E+02 -0.11668190165E+03  0.17811497651E+03  0.12509000000E+03 0.  0.
         25    1    1    2    0    0 -0.16849589199E+02 -0.32606808928E+02 -0.28908648697E+03  0.31712082507E+03  0.12509000000E+03 0.  0.
<mgrwt>
<rscale>  2 0.40981461E+03</rscale>
<asrwt>0</asrwt>
<pdfrwt beam="1">  1       21 0.94300747E-02 0.40981461E+03</pdfrwt>
<pdfrwt beam="2">  1       21 0.96290162E-01 0.40981461E+03</pdfrwt>
<totfact> 0.75287930E+04</totfact>
</mgrwt>
</event>
<event>
 6    0  0.1539497E-004  0.4040994E+03  0.7546771E-02  0.1042369E+00
         21   -1    0    0  502  501  0.00000000000E+00  0.00000000000E+00  0.12569140160E+03  0.12569140160E+03  0.00000000000E+00 0. -1.
         21   -1    0    0  501  502 -0.00000000000E+00 -0.00000000000E+00 -0.32479609699E+03  0.32479609699E+03  0.00000000000E+00 0. -1.
      99925    2    1    2    0    0  0.44014786296E+02 -0.15627429714E+01 -0.98887898779E+02  0.28426277720E+03  0.26284361586E+03 0.  0.
         25    1    3    3    0    0  0.61718121641E+02 -0.21304673442E+01 -0.41844073135E+02  0.14564374338E+03  0.12509000000E+03 0.  0.
         25    1    1    2    0    0 -0.44014786296E+02  0.15627429714E+01 -0.10021679660E+03  0.16622472139E+03  0.12509000000E+03 0.  0.
         25    1    3    3    0    0 -0.17703335345E+02  0.56772437273E+00 -0.57043825643E+02  0.13861903382E+03  0.12509000000E+03 0.  0.
<mgrwt>
<rscale>  2 0.40409938E+03</rscale>
<asrwt>0</asrwt>
<pdfrwt beam="1">  1       21 0.18484030E-01 0.40409938E+03</pdfrwt>
<pdfrwt beam="2">  1       21 0.47764130E-01 0.40409938E+03</pdfrwt>
<totfact> 0.10552241E+05</totfact>
</mgrwt>
</event>
<event>
 6    0  0.1539497E-004  0.4533029E+03  0.7546771E-02  0.1026742E+00
         21   -1    0    0  502  501  0.00000000000E+00  0.00000000000E+00  0.25983053824E+03  0.25983053824E+03  0.00000000000E+00 0. -1.
         21   -1    0    0  501  502 -0.00000000000E+00 -0.00000000000E+00 -0.19770920324E+03  0.19770920324E+03  0.00000000000E+00 0. -1.
      99925    2    1    2    0    0  0.10119380708E+03  0.40679320369E+02  0.62910556544E+02  0.29157852713E+03  0.26299297646E+03 0.  0.
         25    1    1    2    0    0 -0.10119380708E+03 -0.40679320369E+02 -0.78922155000E+00  0.16596121435E+03  0.12509000000E+03 0.  0.
         25    1    3    3    0    0  0.24108804200E+02  0.45121870270E+02  0.49657210562E+02  0.14398112473E+03  0.12509000000E+03 0.  0.
         25    1    3    3    0    0  0.77085002876E+02 -0.44425499012E+01  0.13253345982E+02  0.14759740241E+03  0.12509000000E+03 0.  0.
<mgrwt>
<rscale>  2 0.45330294E+03</rscale>
<asrwt>0</asrwt>
<pdfrwt beam="1">  1       21 0.38210373E-01 0.45330294E+03</pdfrwt>
<pdfrwt beam="2">  1       21 0.29074883E-01 0.45330294E+03</pdfrwt>
<totfact> 0.69293296E+04</totfact>
</mgrwt>
</event>
<event>
 6    0  0.1539497E-004  0.4874594E+03  0.7546771E-02  0.1017105E+00
         21   -1    0    0  502  501  0.00000000000E+00  0.00000000000E+00  0.15985046402E+03  0.15985046402E+03  0.00000000000E+00 0. -1.
         21   -1    0    0  501  502 -0.00000000000E+00 -0.00000000000E+00 -0.37162340373E+03  0.37162340373E+03  0.00000000000E+00 0. -1.
      99925    2    1    2    0    0 -0.59061128767E+02  0.89869941313E+02 -0.29557081035E+02  0.28567933865E+03  0.26300996218E+03 0.  0.
         25    1    1    2    0    0  0.59061128767E+02 -0.89869941313E+02 -0.18221585867E+03  0.24579452910E+03  0.12509000000E+03 0.  0.
         25    1    3    3    0    0 -0.61800135435E+02  0.74048973587E+02 -0.19677514161E+02  0.15917669394E+03  0.12509000000E+03 0.  0.
         25    1    3    3    0    0  0.27390066682E+01  0.15820967727E+02 -0.98795668735E+01  0.12650264471E+03  0.12509000000E+03 0.  0.
<mgrwt>
<rscale>  2 0.48745943E+03</rscale>
<asrwt>0</asrwt>
<pdfrwt beam="1">  1       21 0.23507421E-01 0.48745943E+03</pdfrwt>
<pdfrwt beam="2">  1       21 0.54650500E-01 0.48745943E+03</pdfrwt>
<totfact> 0.49172206E+04</totfact>
</mgrwt>
</event>
<event>
 6    0  0.1539497E-004  0.4016334E+03  0.7546771E-02  0.1043216E+00
         21   -1    0    0  502  501  0.00000000000E+00  0.00000000000E+00  0.30335451540E+02  0.30335451540E+02  0.00000000000E+00 0. -1.
         21   -1    0    0  501  502 -0.00000000000E+00 -0.00000000000E+00 -0.13293799765E+04  0.13293799765E+04  0.00000000000E+00 0. -1.
      99925    2    1    2    0    0 -0.29186378990E+02 -0.34331276647E+02 -0.92614530425E+03  0.96382173248E+03  0.26301468808E+03 0.  0.
         25    1    1    2    0    0  0.29186378990E+02  0.34331276647E+02 -0.37289922070E+03  0.39589369555E+03  0.12509000000E+03 0.  0.
         25    1    3    3    0    0 -0.52557295530E+02 -0.36141780635E+01 -0.45247129335E+03  0.47239084560E+03  0.12509000000E+03 0.  0.
         25    1    3    3    0    0  0.23370916540E+02 -0.30717098584E+02 -0.47367401090E+03  0.49143088688E+03  0.12509000000E+03 0.  0.
<mgrwt>
<rscale>  2 0.40163337E+03</rscale>
<asrwt>0</asrwt>
<pdfrwt beam="1">  1       21 0.44610959E-02 0.40163337E+03</pdfrwt>
<pdfrwt beam="2">  1       21 0.19549705E+00 0.40163337E+03</pdfrwt>
<totfact> 0.42516236E+04</totfact>
</mgrwt>
</event>
<event>
 6    0  0.1539497E-004  0.4084481E+03  0.7546771E-02  0.1040893E+00
         21   -1    0    0  502  501  0.00000000000E+00  0.00000000000E+00  0.24254453409E+03  0.24254453409E+03  0.00000000000E+00 0.  1.
         21   -1    0    0  501  502 -0.00000000000E+00 -0.00000000000E+00 -0.17195795113E+03  0.17195795113E+03  0.00000000000E+00 0.  1.
      99925    2    1    2    0    0  0.28760403319E+02 -0.30623013025E+01  0.10012368474E+03  0.28275846460E+03  0.26285178060E+03 0.  0.
         25    1    3    3    0    0  0.36227566923E+02  0.12401531296E+02  0.84009000571E+02  0.15547107403E+03  0.12509000000E+03 0.  0.
         25    1    3    3    0    0 -0.74671636049E+01 -0.15463832599E+02  0.16114684168E+02  0.12728739056E+03  0.12509000000E+03 0.  0.
         25    1    1    2    0    0 -0.28760403319E+02  0.30623013025E+01 -0.29537101781E+02  0.13174402062E+03  0.12509000000E+03 0.  0.
<mgrwt>
<rscale>  2 0.40844809E+03</rscale>
<asrwt>0</asrwt>
<pdfrwt beam="1">  1       21 0.35668314E-01 0.40844809E+03</pdfrwt>
<pdfrwt beam="2">  1       21 0.25287934E-01 0.40844809E+03</pdfrwt>
<totfact> 0.10576140E+05</totfact>
</mgrwt>
</event>
<event>
 6    0  0.1539497E-004  0.4233710E+03  0.7546771E-02  0.1035975E+00
         21   -1    0    0  502  501  0.00000000000E+00  0.00000000000E+00  0.86412297125E+03  0.86412297125E+03  0.00000000000E+00 0. -1.
         21   -1    0    0  501  502 -0.00000000000E+00 -0.00000000000E+00 -0.51856919513E+02  0.51856919513E+02  0.00000000000E+00 0. -1.
      99925    2    1    2    0    0  0.52343460370E+02 -0.48592255809E+02  0.60873079708E+03  0.66663043085E+03  0.26218677095E+03 0.  0.
         25    1    3    3    0    0  0.42341922454E+02  0.11456992538E+02  0.30436252386E+03  0.33197613635E+03  0.12509000000E+03 0.  0.
         25    1    3    3    0    0  0.10001537917E+02 -0.60049248347E+02  0.30436827322E+03  0.33465429450E+03  0.12509000000E+03 0.  0.
         25    1    1    2    0    0 -0.52343460370E+02  0.48592255809E+02  0.20353525466E+03  0.24934945991E+03  0.12509000000E+03 0.  0.
<mgrwt>
<rscale>  2 0.42337102E+03</rscale>
<asrwt>0</asrwt>
<pdfrwt beam="1">  1       21 0.12707690E+00 0.42337102E+03</pdfrwt>
<pdfrwt beam="2">  1       21 0.76260181E-02 0.42337102E+03</pdfrwt>
<totfact> 0.54933886E+04</totfact>
</mgrwt>
</event>
<event>
 6    0  0.1539497E-004  0.4012014E+03  0.7546771E-02  0.1043364E+00
         21   -1    0    0  502  501  0.00000000000E+00  0.00000000000E+00  0.46701859914E+03  0.46701859914E+03  0.00000000000E+00 0.  1.
         21   -1    0    0  501  502 -0.00000000000E+00 -0.00000000000E+00 -0.86164972504E+02  0.86164972504E+02  0.00000000000E+00 0.  1.
      99925    2    1    2    0    0  0.34990032409E+02 -0.18549174748E+02  0.21780476257E+03  0.34389713055E+03  0.26316904748E+03 0.  0.
         25    1    3    3    0    0  0.13423963032E+02  0.26111316393E+02  0.80368499003E+02  0.15155397507E+03  0.12509000000E+03 0.  0.
         25    1    1    2    0    0 -0.34990032409E+02  0.18549174748E+02  0.16304886406E+03  0.20928644109E+03  0.12509000000E+03 0.  0.
         25    1    3    3    0    0  0.21566069377E+02 -0.44660491140E+02  0.13743626357E+03  0.19234315548E+03  0.12509000000E+03 0.  0.
<mgrwt>
<rscale>  2 0.40120142E+03</rscale>
<asrwt>0</asrwt>
<pdfrwt beam="1">  1       21 0.68679204E-01 0.40120142E+03</pdfrwt>
<pdfrwt beam="2">  1       21 0.12671320E-01 0.40120142E+03</pdfrwt>
<totfact> 0.96693429E+04</totfact>
</mgrwt>
</event>
<event>
 6    0  0.1539497E-004  0.4784823E+03  0.7546771E-02  0.1019553E+00
         21   -1    0    0  502  501  0.00000000000E+00  0.00000000000E+00  0.16739227323E+04  0.16739227323E+04  0.00000000000E+00 0.  1.
         21   -1    0    0  501  502 -0.00000000000E+00 -0.00000000000E+00 -0.34192927097E+02  0.34192927097E+02  0.00000000000E+00 0.  1.
      99925    2    1    2    0    0 -0.20443579451E+02  0.11974417809E+03  0.81089177496E+03  0.86113478795E+03  0.26315593131E+03 0.  0.
         25    1    1    2    0    0  0.20443579451E+02 -0.11974417809E+03  0.82883803019E+03  0.84698087140E+03  0.12509000000E+03 0.  0.
         25    1    3    3    0    0 -0.28634963657E+02  0.33194217057E+02  0.45735652551E+03  0.47617677045E+03  0.12509000000E+03 0.  0.
         25    1    3    3    0    0  0.81913842066E+01  0.86549961034E+02  0.35353524946E+03  0.38495801750E+03  0.12509000000E+03 0.  0.
<mgrwt>
<rscale>  2 0.47848226E+03</rscale>
<asrwt>0</asrwt>
<pdfrwt beam="1">  1       21 0.24616505E+00 0.47848226E+03</pdfrwt>
<pdfrwt beam="2">  1       21 0.50283728E-02 0.47848226E+03</pdfrwt>
<totfact> 0.15976214E+04</totfact>
</mgrwt>
</event>
<event>
 6    0  0.1539497E-004  0.4033417E+03  0.7546771E-02  0.1042629E+00
         21   -1    0    0  502  501  0.00000000000E+00  0.00000000000E+00  0.63536822469E+03  0.63536822469E+03  0.00000000000E+00 0. -1.
         21   -1    0    0  501  502 -0.00000000000E+00 -0.00000000000E+00 -0.64011893745E+02  0.64011893745E+02  0.00000000000E+00 0. -1.
      99925    2    1    2    0    0 -0.28772126351E+02 -0.97643245400E+01  0.30675378144E+03  0.40512649553E+03  0.26288099525E+03 0.  0.
         25    1    3    3    0    0 -0.31189957821E+02 -0.22922202928E+02  0.10719362164E+03  0.16922240240E+03  0.12509000000E+03 0.  0.
         25    1    1    2    0    0  0.28772126351E+02  0.97643245400E+01  0.26460254951E+03  0.29425362291E+03  0.12509000000E+03 0.  0.
         25    1    3    3    0    0  0.24178314697E+01  0.13157878388E+02  0.19956015980E+03  0.23590409312E+03  0.12509000000E+03 0.  0.
<mgrwt>
<rscale>  2 0.40334166E+03</rscale>
<asrwt>0</asrwt>
<pdfrwt beam="1">  1       21 0.93436500E-01 0.40334166E+03</pdfrwt>
<pdfrwt beam="2">  1       21 0.94135142E-02 0.40334166E+03</pdfrwt>
<totfact> 0.81275839E+04</totfact>
</mgrwt>
</event>
<event>
 6    0  0.1539497E-004  0.4380562E+03  0.7546771E-02  0.1031345E+00
         21   -1    0    0  502  501  0.00000000000E+00  0.00000000000E+00  0.20748965104E+03  0.20748965104E+03  0.00000000000E+00 0.  1.
         21   -1    0    0  501  502 -0.00000000000E+00 -0.00000000000E+00 -0.23120823547E+03  0.23120823547E+03  0.00000000000E+00 0.  1.
      99925    2    1    2    0    0  0.28202494459E+01 -0.12059979409E+02  0.80568125534E+02  0.27536808859E+03  0.26302654705E+03 0.  0.
         25    1    1    2    0    0 -0.28202494459E+01  0.12059979409E+02 -0.10428670997E+03  0.16332979791E+03  0.12509000000E+03 0.  0.
         25    1    3    3    0    0 -0.13804336251E+02 -0.31675184554E+02  0.11761993989E+02  0.13030629155E+03  0.12509000000E+03 0.  0.
         25    1    3    3    0    0  0.16624585697E+02  0.19615205145E+02  0.68806131545E+02  0.14506179704E+03  0.12509000000E+03 0.  0.
<mgrwt>
<rscale>  2 0.43805623E+03</rscale>
<asrwt>0</asrwt>
<pdfrwt beam="1">  1       21 0.30513184E-01 0.43805623E+03</pdfrwt>
<pdfrwt beam="2">  1       21 0.34001211E-01 0.43805623E+03</pdfrwt>
<totfact> 0.80043044E+04</totfact>
</mgrwt>
</event>
<event>
 6    0  0.1539497E-004  0.4348317E+03  0.7546771E-02  0.1032344E+00
         21   -1    0    0  502  501  0.00000000000E+00  0.00000000000E+00  0.24261435639E+04  0.24261435639E+04  0.00000000000E+00 0. -1.
         21   -1    0    0  501  502 -0.00000000000E+00 -0.00000000000E+00 -0.19483449469E+02  0.19483449469E+02  0.00000000000E+00 0. -1.
      99925    2    1    2    0    0 -0.32208558568E+02  0.64120152056E+02  0.12107125118E+04  0.12410163039E+04  0.26295987347E+03 0.  0.
         25    1    3    3    0    0 -0.48187029042E+02  0.30250810967E+02  0.50710047362E+03  0.52539080671E+03  0.12509000000E+03 0.  0.
         25    1    3    3    0    0  0.15978470475E+02  0.33869341089E+02  0.70361203821E+03  0.71562549717E+03  0.12509000000E+03 0.  0.
         25    1    1    2    0    0  0.32208558568E+02 -0.64120152056E+02  0.11959476026E+04  0.12046107095E+04  0.12509000000E+03 0.  0.
<mgrwt>
<rscale>  2 0.43483167E+03</rscale>
<asrwt>0</asrwt>
<pdfrwt beam="1">  1       21 0.35678561E+00 0.43483167E+03</pdfrwt>
<pdfrwt beam="2">  1       21 0.28652148E-02 0.43483167E+03</pdfrwt>
<totfact> 0.90407214E+03</totfact>
</mgrwt>
</event>
<event>
 6    0  0.1539497E-004  0.4451027E+03  0.7546771E-02  0.1029193E+00
         21   -1    0    0  502  501  0.00000000000E+00  0.00000000000E+00  0.56604208804E+02  0.56604208804E+02  0.00000000000E+00 0. -1.
         21   -1    0    0  501  502 -0.00000000000E+00 -0.00000000000E+00 -0.87500755070E+03  0.87500755070E+03  0.00000000000E+00 0. -1.
      99925    2    1    2    0    0 -0.65832557023E+02 -0.79994630497E+02 -0.51418370442E+03  0.58674923269E+03  0.26297664098E+03 0.  0.
         25    1    3    3    0    0 -0.30665575695E+02 -0.22630785086E+02 -0.32388158865E+03  0.34928401270E+03  0.12509000000E+03 0.  0.
         25    1    3    3    0    0 -0.35166981328E+02 -0.57363845412E+02 -0.19030211577E+03  0.23746521999E+03  0.12509000000E+03 0.  0.
         25    1    1    2    0    0  0.65832557023E+02  0.79994630497E+02 -0.30421963747E+03  0.34486252681E+03  0.12509000000E+03 0.  0.
<mgrwt>
<rscale>  2 0.44510273E+03</rscale>
<asrwt>0</asrwt>
<pdfrwt beam="1">  1       21 0.83241489E-02 0.44510273E+03</pdfrwt>
<pdfrwt beam="2">  1       21 0.12867757E+00 0.44510273E+03</pdfrwt>
<totfact> 0.45300873E+04</totfact>
</mgrwt>
</event>
<event>
 6    0  0.1986307E-004  0.4062555E+03  0.7546771E-02  0.1041635E+00
         21   -1    0    0  502  501  0.00000000000E+00  0.00000000000E+00  0.62986434110E+02  0.62986434110E+02  0.00000000000E+00 0.  1.
         21   -1    0    0  501  502 -0.00000000000E+00 -0.00000000000E+00 -0.65507567402E+03  0.65507567402E+03  0.00000000000E+00 0.  1.
      99925    2    1    2    0    0 -0.44044415028E+02  0.95361156499E+01 -0.45431185690E+03  0.52659157942E+03  0.26242823818E+03 0.  0.
         25    1    1    2    0    0  0.44044415028E+02 -0.95361156499E+01 -0.13777738301E+03  0.19147052871E+03  0.12509000000E+03 0.  0.
         25    1    3    3    0    0  0.91114810901E+01  0.28329933648E+02 -0.23559436710E+03  0.26839861799E+03  0.12509000000E+03 0.  0.
         25    1    3    3    0    0 -0.53155896118E+02 -0.18793817999E+02 -0.21871748980E+03  0.25819296143E+03  0.12509000000E+03 0.  0.
<mgrwt>
<rscale>  2 0.40625549E+03</rscale>
<asrwt>0</asrwt>
<pdfrwt beam="1">  1       21 0.92627110E-02 0.40625549E+03</pdfrwt>
<pdfrwt beam="2">  1       21 0.96334657E-01 0.40625549E+03</pdfrwt>
<totfact> 0.77714726E+04</totfact>
</mgrwt>
</event>
<event>
 6    0  0.1539497E-004  0.4443733E+03  0.7546771E-02  0.1029413E+00
         21   -1    0    0  502  501  0.00000000000E+00  0.00000000000E+00  0.12461682767E+03  0.12461682767E+03  0.00000000000E+00 0.  1.
         21   -1    0    0  501  502 -0.00000000000E+00 -0.00000000000E+00 -0.39614953383E+03  0.39614953383E+03  0.00000000000E+00 0.  1.
      99925    2    1    2    0    0 -0.50555069904E+01  0.54882470855E+02 -0.71986102164E+02  0.27889036222E+03  0.26374266146E+03 0.  0.
         25    1    3    3    0    0 -0.21229646762E+02  0.43722190325E+02 -0.71938695497E+02  0.15226625312E+03  0.12509000000E+03 0.  0.
         25    1    3    3    0    0  0.16174139772E+02  0.11160280530E+02 -0.47406666894E-01  0.12662410910E+03  0.12509000000E+03 0.  0.
         25    1    1    2    0    0  0.50555069904E+01 -0.54882470855E+02 -0.19954660400E+03  0.24187599927E+03  0.12509000000E+03 0.  0.
<mgrwt>
<rscale>  2 0.44437326E+03</rscale>
<asrwt>0</asrwt>
<pdfrwt beam="1">  1       21 0.18326004E-01 0.44437326E+03</pdfrwt>
<pdfrwt beam="2">  1       21 0.58257285E-01 0.44437326E+03</pdfrwt>
<totfact> 0.69506828E+04</totfact>
</mgrwt>
</event>
<event>
 6    0  0.1539497E-004  0.4301115E+03  0.7546771E-02  0.1033825E+00
         21   -1    0    0  502  501  0.00000000000E+00  0.00000000000E+00  0.11888081275E+04  0.11888081275E+04  0.00000000000E+00 0.  1.
         21   -1    0    0  501  502 -0.00000000000E+00 -0.00000000000E+00 -0.38903651821E+02  0.38903651821E+02  0.00000000000E+00 0.  1.
      99925    2    1    2    0    0 -0.56889405598E+02 -0.16855558616E+02  0.92555505184E+03  0.96408195096E+03  0.26321348721E+03 0.  0.
         25    1    3    3    0    0 -0.56986437159E+02 -0.37896680007E+02  0.46408366927E+03  0.48549435894E+03  0.12509000000E+03 0.  0.
         25    1    1    2    0    0  0.56889405598E+02  0.16855558616E+02  0.22434942382E+03  0.26362982835E+03  0.12509000000E+03 0.  0.
         25    1    3    3    0    0  0.97031561543E-01  0.21041121391E+02  0.46147138257E+03  0.47858759202E+03  0.12509000000E+03 0.  0.
<mgrwt>
<rscale>  2 0.43011151E+03</rscale>
<asrwt>0</asrwt>
<pdfrwt beam="1">  1       21 0.17482470E+00 0.43011151E+03</pdfrwt>
<pdfrwt beam="2">  1       21 0.57211260E-02 0.43011151E+03</pdfrwt>
<totfact> 0.38162746E+04</totfact>
</mgrwt>
</event>
<event>
 6    0  0.1539497E-004  0.4777264E+03  0.7546771E-02  0.1019762E+00
         21   -1    0    0  502  501  0.00000000000E+00  0.00000000000E+00  0.14787957048E+03  0.14787957048E+03  0.00000000000E+00 0. -1.
         21   -1    0    0  501  502 -0.00000000000E+00 -0.00000000000E+00 -0.38582498059E+03  0.38582498059E+03  0.00000000000E+00 0. -1.
      99925    2    1    2    0    0  0.78225720961E+01  0.13191630771E+03 -0.12920232198E+03  0.32172419303E+03  0.26334409335E+03 0.  0.
         25    1    3    3    0    0 -0.20792540465E+02  0.58183883737E+02 -0.27634670497E+02  0.14222825732E+03  0.12509000000E+03 0.  0.
         25    1    3    3    0    0  0.28615112561E+02  0.73732423973E+02 -0.10156765148E+03  0.17949593572E+03  0.12509000000E+03 0.  0.
         25    1    1    2    0    0 -0.78225720961E+01 -0.13191630771E+03 -0.10874308813E+03  0.21198035803E+03  0.12509000000E+03 0.  0.
<mgrwt>
<rscale>  2 0.47772642E+03</rscale>
<asrwt>0</asrwt>
<pdfrwt beam="1">  1       21 0.21746996E-01 0.47772642E+03</pdfrwt>
<pdfrwt beam="2">  1       21 0.56738967E-01 0.47772642E+03</pdfrwt>
<totfact> 0.52783998E+04</totfact>
</mgrwt>
</event>
<event>
 6    0  0.1539497E-004  0.4467880E+03  0.7546771E-02  0.1028684E+00
         21   -1    0    0  502  501  0.00000000000E+00  0.00000000000E+00  0.45618644225E+02  0.45618644225E+02  0.00000000000E+00 0. -1.
         21   -1    0    0  501  502 -0.00000000000E+00 -0.00000000000E+00 -0.10939579613E+04  0.10939579613E+04  0.00000000000E+00 0. -1.
      99925    2    1    2    0    0  0.80217554949E+02 -0.66046102213E+02 -0.70740973918E+03  0.76184994653E+03  0.26303965137E+03 0.  0.
         25    1    3    3    0    0  0.12222917054E+02  0.43667776542E+00 -0.31441399449E+03  0.33860487064E+03  0.12509000000E+03 0.  0.
         25    1    3    3    0    0  0.67994637895E+02 -0.66482779979E+02 -0.39299574469E+03  0.42324507589E+03  0.12509000000E+03 0.  0.
         25    1    1    2    0    0 -0.80217554949E+02  0.66046102213E+02 -0.34092957792E+03  0.37772665903E+03  0.12509000000E+03 0.  0.
<mgrwt>
<rscale>  2 0.44678800E+03</rscale>
<asrwt>0</asrwt>
<pdfrwt beam="1">  1       21 0.67086247E-02 0.44678800E+03</pdfrwt>
<pdfrwt beam="2">  1       21 0.16087616E+00 0.44678800E+03</pdfrwt>
<totfact> 0.36407449E+04</totfact>
</mgrwt>
</event>
<event>
 6    0  0.1539497E-004  0.4187707E+03  0.7546771E-02  0.1037467E+00
         21   -1    0    0  502  501  0.00000000000E+00  0.00000000000E+00  0.44626482735E+03  0.44626482735E+03  0.00000000000E+00 0.  1.
         21   -1    0    0  501  502 -0.00000000000E+00 -0.00000000000E+00 -0.98242632151E+02  0.98242632151E+02  0.00000000000E+00 0.  1.
      99925    2    1    2    0    0  0.48061012833E+02 -0.55056736215E+02  0.24489299174E+03  0.36667538742E+03  0.26293945534E+03 0.  0.
         25    1    1    2    0    0 -0.48061012833E+02  0.55056736215E+02  0.10312920346E+03  0.17783207209E+03  0.12509000000E+03 0.  0.
         25    1    3    3    0    0  0.64678605174E+02 -0.32191195208E+02  0.13687031786E+03  0.19899896238E+03  0.12509000000E+03 0.  0.
         25    1    3    3    0    0 -0.16617592341E+02 -0.22865541007E+02  0.10802267388E+03  0.16767642504E+03  0.12509000000E+03 0.  0.
<mgrwt>
<rscale>  2 0.41877073E+03</rscale>
<asrwt>0</asrwt>
<pdfrwt beam="1">  1       21 0.65627179E-01 0.41877073E+03</pdfrwt>
<pdfrwt beam="2">  1       21 0.14447446E-01 0.41877073E+03</pdfrwt>
<totfact> 0.83790068E+04</totfact>
</mgrwt>
</event>
<event>
 6    0  0.1539497E-004  0.4478286E+03  0.7546771E-02  0.1028372E+00
         21   -1    0    0  502  501  0.00000000000E+00  0.00000000000E+00  0.66818462286E+03  0.66818462286E+03  0.00000000000E+00 0. -1.
         21   -1    0    0  501  502 -0.00000000000E+00 -0.00000000000E+00 -0.75035582804E+02  0.75035582804E+02  0.00000000000E+00 0. -1.
      99925    2    1    2    0    0  0.20234291461E+02  0.61308203534E+02  0.23483410940E+03  0.35824589483E+03  0.26272597864E+03 0.  0.
         25    1    1    2    0    0 -0.20234291461E+02 -0.61308203534E+02  0.35831493066E+03  0.38497431084E+03  0.12509000000E+03 0.  0.
         25    1    3    3    0    0 -0.18951866517E+01  0.63394025399E+02  0.15069672747E+03  0.20586258999E+03  0.12509000000E+03 0.  0.
         25    1    3    3    0    0  0.22129478113E+02 -0.20858218652E+01  0.84137381928E+02  0.15238330483E+03  0.12509000000E+03 0.  0.
<mgrwt>
<rscale>  2 0.44782864E+03</rscale>
<asrwt>0</asrwt>
<pdfrwt beam="1">  1       21 0.98262441E-01 0.44782864E+03</pdfrwt>
<pdfrwt beam="2">  1       21 0.11034645E-01 0.44782864E+03</pdfrwt>
<totfact> 0.53575293E+04</totfact>
</mgrwt>
</event>
<event>
 6    0  0.1539497E-004  0.4022544E+03  0.7546771E-02  0.1043002E+00
         21   -1    0    0  502  501  0.00000000000E+00  0.00000000000E+00  0.21982798250E+03  0.21982798250E+03  0.00000000000E+00 0.  1.
         21   -1    0    0  501  502 -0.00000000000E+00 -0.00000000000E+00 -0.18401728021E+03  0.18401728021E+03  0.00000000000E+00 0.  1.
      99925    2    1    2    0    0 -0.41752984604E+02  0.25889866139E+02  0.16196769338E+02  0.26802990511E+03  0.26299068008E+03 0.  0.
         25    1    3    3    0    0 -0.14289574390E+02  0.28530150825E+02  0.45038641827E+02  0.13672654753E+03  0.12509000000E+03 0.  0.
         25    1    1    2    0    0  0.41752984604E+02 -0.25889866139E+02  0.19613932957E+02  0.13581535759E+03  0.12509000000E+03 0.  0.
         25    1    3    3    0    0 -0.27463410214E+02 -0.26402846865E+01 -0.28841872489E+02  0.13130335758E+03  0.12509000000E+03 0.  0.
<mgrwt>
<rscale>  2 0.40225438E+03</rscale>
<asrwt>0</asrwt>
<pdfrwt beam="1">  1       21 0.32327645E-01 0.40225438E+03</pdfrwt>
<pdfrwt beam="2">  1       21 0.27061364E-01 0.40225438E+03</pdfrwt>
<totfact> 0.11307305E+05</totfact>
</mgrwt>
</event>
<event>
 6    0  0.1539497E-004  0.4851018E+03  0.7546771E-02  0.1017742E+00
         21   -1    0    0  502  501  0.00000000000E+00  0.00000000000E+00  0.13154594615E+04  0.13154594615E+04  0.00000000000E+00 0.  1.
         21   -1    0    0  501  502 -0.00000000000E+00 -0.00000000000E+00 -0.44722737478E+02  0.44722737478E+02  0.00000000000E+00 0.  1.
      99925    2    1    2    0    0  0.34745969462E+02 -0.56590587347E+02  0.11239189635E+04  0.11561901896E+04  0.26300597168E+03 0.  0.
         25    1    3    3    0    0 -0.13315113886E+02 -0.36506889246E+02  0.66070486756E+03  0.67356400983E+03  0.12509000000E+03 0.  0.
         25    1    3    3    0    0  0.48061083347E+02 -0.20083698101E+02  0.46321409592E+03  0.48262617980E+03  0.12509000000E+03 0.  0.
         25    1    1    2    0    0 -0.34745969462E+02  0.56590587347E+02  0.14681776054E+03  0.20399200935E+03  0.12509000000E+03 0.  0.
<mgrwt>
<rscale>  2 0.48510184E+03</rscale>
<asrwt>0</asrwt>
<pdfrwt beam="1">  1       21 0.19344990E+00 0.48510184E+03</pdfrwt>
<pdfrwt beam="2">  1       21 0.65768740E-02 0.48510184E+03</pdfrwt>
<totfact> 0.21836762E+04</totfact>
</mgrwt>
</event>
<event>
 6    0  0.1539497E-004  0.4604975E+03  0.7546771E-02  0.1024637E+00
         21   -1    0    0  502  501  0.00000000000E+00  0.00000000000E+00  0.24524911607E+04  0.24524911607E+04  0.00000000000E+00 0.  1.
         21   -1    0    0  501  502 -0.00000000000E+00 -0.00000000000E+00 -0.21616585295E+02  0.21616585295E+02  0.00000000000E+00 0.  1.
      99925    2    1    2    0    0 -0.39081119636E+02 -0.81957427024E+02  0.19291095356E+04  0.19490743975E+04  0.26302671521E+03 0.  0.
         25    1    3    3    0    0 -0.41627768938E+02 -0.95910529213E+01  0.81975028316E+03  0.83033902370E+03  0.12509000000E+03 0.  0.
         25    1    3    3    0    0  0.25466493014E+01 -0.72366374103E+02  0.11093592524E+04  0.11187353738E+04  0.12509000000E+03 0.  0.
         25    1    1    2    0    0  0.39081119636E+02  0.81957427024E+02  0.50176503985E+03  0.52503334853E+03  0.12509000000E+03 0.  0.
<mgrwt>
<rscale>  2 0.46049749E+03</rscale>
<asrwt>0</asrwt>
<pdfrwt beam="1">  1       21 0.36066027E+00 0.46049749E+03</pdfrwt>
<pdfrwt beam="2">  1       21 0.31789113E-02 0.46049749E+03</pdfrwt>
<totfact> 0.70924162E+03</totfact>
</mgrwt>
</event>
<event>
 6    0  0.1539497E-004  0.4185627E+03  0.7546771E-02  0.1037535E+00
         21   -1    0    0  502  501  0.00000000000E+00  0.00000000000E+00  0.17267813732E+03  0.17267813732E+03  0.00000000000E+00 0.  1.
         21   -1    0    0  501  502 -0.00000000000E+00 -0.00000000000E+00 -0.25364344908E+03  0.25364344908E+03  0.00000000000E+00 0.  1.
      99925    2    1    2    0    0 -0.60559495150E+02 -0.42220219548E+01 -0.98137583570E+01  0.27013154326E+03  0.26303889996E+03 0.  0.
         25    1    3    3    0    0 -0.25914484693E+02  0.22605710399E+02 -0.36843185970E+02  0.13486106596E+03  0.12509000000E+03 0.  0.
         25    1    1    2    0    0  0.60559495150E+02  0.42220219548E+01 -0.71151553403E+02  0.15619004313E+03  0.12509000000E+03 0.  0.
         25    1    3    3    0    0 -0.34645010457E+02 -0.26827732354E+02  0.27029427613E+02  0.13527047730E+03  0.12509000000E+03 0.  0.
<mgrwt>
<rscale>  2 0.41856268E+03</rscale>
<asrwt>0</asrwt>
<pdfrwt beam="1">  1       21 0.25393844E-01 0.41856268E+03</pdfrwt>
<pdfrwt beam="2">  1       21 0.37300507E-01 0.41856268E+03</pdfrwt>
<totfact> 0.95601121E+04</totfact>
</mgrwt>
</event>
<event>
 6    0  0.1539497E-004  0.3952242E+03  0.7546771E-02  0.1045446E+00
         21   -1    0    0  502  501  0.00000000000E+00  0.00000000000E+00  0.45344935153E+03  0.45344935153E+03  0.00000000000E+00 0.  1.
         21   -1    0    0  501  502 -0.00000000000E+00 -0.00000000000E+00 -0.86118875240E+02  0.86118875240E+02  0.00000000000E+00 0.  1.
      99925    2    1    2    0    0 -0.17478576934E+01 -0.21349329860E+01  0.19849394156E+03  0.32942328511E+03  0.26289207480E+03 0.  0.
         25    1    3    3    0    0  0.31264606928E+02  0.20070672709E+02  0.83559141912E+02  0.15495143060E+03  0.12509000000E+03 0.  0.
         25    1    3    3    0    0 -0.33012464622E+02 -0.22205605695E+02  0.11493479965E+03  0.17447185451E+03  0.12509000000E+03 0.  0.
         25    1    1    2    0    0  0.17478576934E+01  0.21349329860E+01  0.16883653472E+03  0.21014494166E+03  0.12509000000E+03 0.  0.
<mgrwt>
<rscale>  2 0.39522423E+03</rscale>
<asrwt>0</asrwt>
<pdfrwt beam="1">  1       21 0.66683727E-01 0.39522423E+03</pdfrwt>
<pdfrwt beam="2">  1       21 0.12664541E-01 0.39522423E+03</pdfrwt>
<totfact> 0.10350325E+05</totfact>
</mgrwt>
</event>
<event>
 6    0  0.1539497E-004  0.3961249E+03  0.7546771E-02  0.1045130E+00
         21   -1    0    0  502  501  0.00000000000E+00  0.00000000000E+00  0.61889413497E+02  0.61889413497E+02  0.00000000000E+00 0. -1.
         21   -1    0    0  501  502 -0.00000000000E+00 -0.00000000000E+00 -0.63385204715E+03  0.63385204715E+03  0.00000000000E+00 0. -1.
      99925    2    1    2    0    0 -0.24669591623E+02  0.27205481056E+02 -0.37171907840E+03  0.45679854597E+03  0.26294697452E+03 0.  0.
         25    1    1    2    0    0  0.24669591623E+02 -0.27205481056E+02 -0.20024355525E+03  0.23894291467E+03  0.12509000000E+03 0.  0.
         25    1    3    3    0    0 -0.34513978248E+02  0.45609261851E+02 -0.21440574445E+03  0.25473270465E+03  0.12509000000E+03 0.  0.
         25    1    3    3    0    0  0.98443866254E+01 -0.18403780795E+02 -0.15731333394E+03  0.20206584133E+03  0.12509000000E+03 0.  0.
<mgrwt>
<rscale>  2 0.39612489E+03</rscale>
<asrwt>0</asrwt>
<pdfrwt beam="1">  1       21 0.91013843E-02 0.39612489E+03</pdfrwt>
<pdfrwt beam="2">  1       21 0.93213537E-01 0.39612489E+03</pdfrwt>
<totfact> 0.86956321E+04</totfact>
</mgrwt>
</event>
<event>
 6    0  0.1539497E-004  0.4388429E+03  0.7546771E-02  0.1031102E+00
         21   -1    0    0  502  501  0.00000000000E+00  0.00000000000E+00  0.98483955303E+02  0.98483955303E+02  0.00000000000E+00 0.  1.
         21   -1    0    0  501  502 -0.00000000000E+00 -0.00000000000E+00 -0.48886920841E+03  0.48886920841E+03  0.00000000000E+00 0.  1.
      99925    2    1    2    0    0  0.65980372680E+02  0.60178735438E+02 -0.30138286521E+03  0.40974735601E+03  0.26284287044E+03 0.  0.
         25    1    1    2    0    0 -0.65980372680E+02 -0.60178735438E+02 -0.89002387897E+02  0.17760580770E+03  0.12509000000E+03 0.  0.
         25    1    3    3    0    0  0.31302455307E+02 -0.63695883712E+01 -0.11363220121E+03  0.17198895492E+03  0.12509000000E+03 0.  0.
         25    1    3    3    0    0  0.34677917372E+02  0.66548323810E+02 -0.18775066401E+03  0.23775840109E+03  0.12509000000E+03 0.  0.
<mgrwt>
<rscale>  2 0.43884290E+03</rscale>
<asrwt>0</asrwt>
<pdfrwt beam="1">  1       21 0.14482935E-01 0.43884290E+03</pdfrwt>
<pdfrwt beam="2">  1       21 0.71892529E-01 0.43884290E+03</pdfrwt>
<totfact> 0.67703878E+04</totfact>
</mgrwt>
</event>
<event>
 5    0  0.1690667E-004  0.4147144E+03  0.7546771E-02  0.1038800E+00
         21   -1    0    0  502  501  0.00000000000E+00  0.00000000000E+00  0.23318301924E+03  0.23318301924E+03  0.00000000000E+00 0.  1.
         21   -1    0    0  501  502 -0.00000000000E+00 -0.00000000000E+00 -0.18439167594E+03  0.18439167594E+03  0.00000000000E+00 0.  1.
         25    1    1    2    0    0 -0.12088070390E+02 -0.14373056623E+02  0.79478051564E+02  0.14938867087E+03  0.12509000000E+03 0.  0.
         25    1    1    2    0    0 -0.26687556561E+01  0.45457404747E+02  0.63346508008E+01  0.13327090382E+03  0.12509000000E+03 0.  0.
         25    1    1    2    0    0  0.14756826046E+02 -0.31084348124E+02 -0.37021359068E+02  0.13491512050E+03  0.12509000000E+03 0.  0.
<mgrwt>
<rscale>  2 0.41471440E+03</rscale>
<asrwt>0</asrwt>
<pdfrwt beam="1">  1       21 0.34291620E-01 0.41471440E+03</pdfrwt>
<pdfrwt beam="2">  1       21 0.27116423E-01 0.41471440E+03</pdfrwt>
<totfact> 0.99801657E+04</totfact>
</mgrwt>
</event>
<event>
 6    0  0.1539497E-004  0.4284008E+03  0.7546771E-02  0.1034366E+00
         21   -1    0    0  502  501  0.00000000000E+00  0.00000000000E+00  0.95169619255E+02  0.95169619255E+02  0.00000000000E+00 0.  1.
         21   -1    0    0  501  502 -0.00000000000E+00 -0.00000000000E+00 -0.48210563654E+03  0.48210563654E+03  0.00000000000E+00 0.  1.
      99925    2    1    2    0    0 -0.84237016867E+02 -0.16365033718E+02 -0.24952676079E+03  0.37259867870E+03  0.26306364569E+03 0.  0.
         25    1    1    2    0    0  0.84237016867E+02  0.16365033718E+02 -0.13740925649E+03  0.20467657709E+03  0.12509000000E+03 0.  0.
         25    1    3    3    0    0 -0.15567465802E+02 -0.25487256767E+02 -0.15398647139E+03  0.20062723574E+03  0.12509000000E+03 0.  0.
         25    1    3    3    0    0 -0.68669551065E+02  0.91222230491E+01 -0.95540289404E+02  0.17197144297E+03  0.12509000000E+03 0.  0.
<mgrwt>
<rscale>  2 0.42840079E+03</rscale>
<asrwt>0</asrwt>
<pdfrwt beam="1">  1       21 0.13995532E-01 0.42840079E+03</pdfrwt>
<pdfrwt beam="2">  1       21 0.70897889E-01 0.42840079E+03</pdfrwt>
<totfact> 0.74590014E+04</totfact>
</mgrwt>
</event>
<event>
 6    0  0.1539497E-004  0.4488599E+03  0.7546771E-02  0.1028063E+00
         21   -1    0    0  502  501  0.00000000000E+00  0.00000000000E+00  0.28640753398E+02  0.28640753398E+02  0.00000000000E+00 0.  1.
         21   -1    0    0  501  502 -0.00000000000E+00 -0.00000000000E+00 -0.17586413212E+04  0.17586413212E+04  0.00000000000E+00 0.  1.
      99925    2    1    2    0    0 -0.46703815747E+02 -0.47657771465E+02 -0.76071464484E+03  0.80768255534E+03  0.26308141275E+03 0.  0.
         25    1    3    3    0    0 -0.71450374090E+01  0.12762160269E+02 -0.38958933231E+03  0.40944020350E+03  0.12509000000E+03 0.  0.
         25    1    1    2    0    0  0.46703815747E+02  0.47657771465E+02 -0.96928592300E+03  0.97959951930E+03  0.12509000000E+03 0.  0.
         25    1    3    3    0    0 -0.39558778338E+02 -0.60419931734E+02 -0.37112531253E+03  0.39824235184E+03  0.12509000000E+03 0.  0.
<mgrwt>
<rscale>  2 0.44885994E+03</rscale>
<asrwt>0</asrwt>
<pdfrwt beam="1">  1       21 0.42118745E-02 0.44885994E+03</pdfrwt>
<pdfrwt beam="2">  1       21 0.25862379E+00 0.44885994E+03</pdfrwt>
<totfact> 0.18364994E+04</totfact>
</mgrwt>
</event>
<event>
 6    0  0.1539497E-004  0.3949369E+03  0.7546771E-02  0.1045547E+00
         21   -1    0    0  502  501  0.00000000000E+00  0.00000000000E+00  0.14841564689E+04  0.14841564689E+04  0.00000000000E+00 0. -1.
         21   -1    0    0  501  502 -0.00000000000E+00 -0.00000000000E+00 -0.26273374087E+02  0.26273374087E+02  0.00000000000E+00 0. -1.
      99925    2    1    2    0    0 -0.48202062061E+01 -0.33675464526E+02  0.96470985589E+03  0.10005037474E+04  0.26303112203E+03 0.  0.
         25    1    3    3    0    0 -0.33173188866E+02  0.98106937798E+01  0.47416908180E+03  0.49161014677E+03  0.12509000000E+03 0.  0.
         25    1    3    3    0    0  0.28352982660E+02 -0.43486158305E+02  0.49054077408E+03  0.50889360060E+03  0.12509000000E+03 0.  0.
         25    1    1    2    0    0  0.48202062061E+01  0.33675464526E+02  0.49317323892E+03  0.50992609561E+03  0.12509000000E+03 0.  0.
<mgrwt>
<rscale>  2 0.39493695E+03</rscale>
<asrwt>0</asrwt>
<pdfrwt beam="1">  1       21 0.21825825E+00 0.39493695E+03</pdfrwt>
<pdfrwt beam="2">  1       21 0.38637325E-02 0.39493695E+03</pdfrwt>
<totfact> 0.38659216E+04</totfact>
</mgrwt>
</event>
<event>
 6    0  0.1539497E-004  0.4184495E+03  0.7546771E-02  0.1037572E+00
         21   -1    0    0  502  501  0.00000000000E+00  0.00000000000E+00  0.11535292248E+03  0.11535292248E+03  0.00000000000E+00 0. -1.
         21   -1    0    0  501  502 -0.00000000000E+00 -0.00000000000E+00 -0.37948745031E+03  0.37948745031E+03  0.00000000000E+00 0. -1.
      99925    2    1    2    0    0  0.17636225927E+02  0.20182404948E+02 -0.25393575696E+03  0.36650530758E+03  0.26291520665E+03 0.  0.
         25    1    3    3    0    0  0.45450109451E+02  0.18333719903E+02 -0.15109961926E+03  0.20218912131E+03  0.12509000000E+03 0.  0.
         25    1    1    2    0    0 -0.17636225927E+02 -0.20182404948E+02 -0.10198770871E+02  0.12833506521E+03  0.12509000000E+03 0.  0.
         25    1    3    3    0    0 -0.27813883524E+02  0.18486850446E+01 -0.10283613770E+03  0.16431618627E+03  0.12509000000E+03 0.  0.
<mgrwt>
<rscale>  2 0.41844945E+03</rscale>
<asrwt>0</asrwt>
<pdfrwt beam="1">  1       21 0.16963665E-01 0.41844945E+03</pdfrwt>
<pdfrwt beam="2">  1       21 0.55806978E-01 0.41844945E+03</pdfrwt>
<totfact> 0.88688067E+04</totfact>
</mgrwt>
</event>
<event>
 6    0  0.1539497E-004  0.4534822E+03  0.7546771E-02  0.1026689E+00
         21   -1    0    0  502  501  0.00000000000E+00  0.00000000000E+00  0.48062459266E+03  0.48062459266E+03  0.00000000000E+00 0.  1.
         21   -1    0    0  501  502 -0.00000000000E+00 -0.00000000000E+00 -0.10696813961E+03  0.10696813961E+03  0.00000000000E+00 0.  1.
      99925    2    1    2    0    0  0.28594547990E+02 -0.10788157975E+03  0.24143382972E+03  0.37408298157E+03  0.26304315149E+03 0.  0.
         25    1    3    3    0    0  0.46994171484E+02 -0.78279063400E+02  0.11552181991E+03  0.19320678792E+03  0.12509000000E+03 0.  0.
         25    1    3    3    0    0 -0.18399623494E+02 -0.29602516346E+02  0.12591200980E+03  0.18087619365E+03  0.12509000000E+03 0.  0.
         25    1    1    2    0    0 -0.28594547990E+02  0.10788157975E+03  0.13222262333E+03  0.21350975070E+03  0.12509000000E+03 0.  0.
<mgrwt>
<rscale>  2 0.45348217E+03</rscale>
<asrwt>0</asrwt>
<pdfrwt beam="1">  1       21 0.70680086E-01 0.45348217E+03</pdfrwt>
<pdfrwt beam="2">  1       21 0.15730609E-01 0.45348217E+03</pdfrwt>
<totfact> 0.60167120E+04</totfact>
</mgrwt>
</event>
<event>
 6    0  0.1539497E-004  0.4006101E+03  0.7546771E-02  0.1043569E+00
         21   -1    0    0  502  501  0.00000000000E+00  0.00000000000E+00  0.90841334337E+02  0.90841334337E+02  0.00000000000E+00 0.  1.
         21   -1    0    0  501  502 -0.00000000000E+00 -0.00000000000E+00 -0.44167247944E+03  0.44167247944E+03  0.00000000000E+00 0.  1.
      99925    2    1    2    0    0  0.16492609963E+02  0.21660298255E+02 -0.28435063761E+03  0.38826284955E+03  0.26296688105E+03 0.  0.
         25    1    3    3    0    0  0.29266364313E+02 -0.13154369918E+02 -0.10479440869E+03  0.16630975233E+03  0.12509000000E+03 0.  0.
         25    1    3    3    0    0 -0.12773754350E+02  0.34814668173E+02 -0.17955622892E+03  0.22195309721E+03  0.12509000000E+03 0.  0.
         25    1    1    2    0    0 -0.16492609963E+02 -0.21660298255E+02 -0.66480507494E+02  0.14425096423E+03  0.12509000000E+03 0.  0.
<mgrwt>
<rscale>  2 0.40061012E+03</rscale>
<asrwt>0</asrwt>
<pdfrwt beam="1">  1       21 0.13359020E-01 0.40061012E+03</pdfrwt>
<pdfrwt beam="2">  1       21 0.64951835E-01 0.40061012E+03</pdfrwt>
<totfact> 0.99408533E+04</totfact>
</mgrwt>
</event>
<event>
 6    0  0.1539497E-004  0.3959883E+03  0.7546771E-02  0.1045178E+00
         21   -1    0    0  502  501  0.00000000000E+00  0.00000000000E+00  0.53833654851E+03  0.53833654851E+03  0.00000000000E+00 0.  1.
         21   -1    0    0  501  502 -0.00000000000E+00 -0.00000000000E+00 -0.72820032417E+02  0.72820032417E+02  0.00000000000E+00 0.  1.
      99925    2    1    2    0    0  0.95155694893E+01  0.27015038475E+02  0.34762422801E+03  0.43689683785E+03  0.26308911924E+03 0.  0.
         25    1    3    3    0    0 -0.21476198085E+02  0.39195452270E+02  0.20514015988E+03  0.24439211088E+03  0.12509000000E+03 0.  0.
         25    1    3    3    0    0  0.30991767574E+02 -0.12180413795E+02  0.14248406813E+03  0.19250472698E+03  0.12509000000E+03 0.  0.
         25    1    1    2    0    0 -0.95155694893E+01 -0.27015038475E+02  0.11789228808E+03  0.17425974307E+03  0.12509000000E+03 0.  0.
<mgrwt>
<rscale>  2 0.39598831E+03</rscale>
<asrwt>0</asrwt>
<pdfrwt beam="1">  1       21 0.79167138E-01 0.39598831E+03</pdfrwt>
<pdfrwt beam="2">  1       21 0.10708829E-01 0.39598831E+03</pdfrwt>
<totfact> 0.95168784E+04</totfact>
</mgrwt>
</event>
<event>
 6    0  0.1539497E-004  0.4065056E+03  0.7546771E-02  0.1041550E+00
         21   -1    0    0  502  501  0.00000000000E+00  0.00000000000E+00  0.83007766667E+02  0.83007766667E+02  0.00000000000E+00 0.  1.
         21   -1    0    0  501  502 -0.00000000000E+00 -0.00000000000E+00 -0.49768468506E+03  0.49768468506E+03  0.00000000000E+00 0.  1.
      99925    2    1    2    0    0  0.24684885787E+02 -0.96575370399E+01 -0.34668332067E+03  0.43587101326E+03  0.26285281768E+03 0.  0.
         25    1    3    3    0    0  0.44645147754E+02  0.14362230659E+02 -0.15196603475E+03  0.20233795171E+03  0.12509000000E+03 0.  0.
         25    1    3    3    0    0 -0.19960261967E+02 -0.24019767699E+02 -0.19471728592E+03  0.23353306155E+03  0.12509000000E+03 0.  0.
         25    1    1    2    0    0 -0.24684885787E+02  0.96575370399E+01 -0.67993597723E+02  0.14482143847E+03  0.12509000000E+03 0.  0.
<mgrwt>
<rscale>  2 0.40650557E+03</rscale>
<asrwt>0</asrwt>
<pdfrwt beam="1">  1       21 0.12207024E-01 0.40650557E+03</pdfrwt>
<pdfrwt beam="2">  1       21 0.73188925E-01 0.40650557E+03</pdfrwt>
<totfact> 0.89591758E+04</totfact>
</mgrwt>
</event>
<event>
 6    0  0.1539497E-004  0.4143113E+03  0.7546771E-02  0.1038934E+00
         21   -1    0    0  502  501  0.00000000000E+00  0.00000000000E+00  0.25436225468E+03  0.25436225468E+03  0.00000000000E+00 0.  1.
         21   -1    0    0  501  502 -0.00000000000E+00 -0.00000000000E+00 -0.16871006301E+03  0.16871006301E+03  0.00000000000E+00 0.  1.
      99925    2    1    2    0    0 -0.69530878358E+01 -0.59113855524E+02  0.90286763131E+02  0.28446574967E+03  0.26310885541E+03 0.  0.
         25    1    1    2    0    0  0.69530878358E+01  0.59113855524E+02 -0.46345714581E+01  0.13860656802E+03  0.12509000000E+03 0.  0.
         25    1    3    3    0    0 -0.22729713438E+02  0.22643453813E+01  0.24178616883E+02  0.12943678282E+03  0.12509000000E+03 0.  0.
         25    1    3    3    0    0  0.15776625602E+02 -0.61378200905E+02  0.66108146248E+02  0.15502896685E+03  0.12509000000E+03 0.  0.
<mgrwt>
<rscale>  2 0.41431134E+03</rscale>
<asrwt>0</asrwt>
<pdfrwt beam="1">  1       21 0.37406214E-01 0.41431134E+03</pdfrwt>
<pdfrwt beam="2">  1       21 0.24810303E-01 0.41431134E+03</pdfrwt>
<totfact> 0.99529025E+04</totfact>
</mgrwt>
</event>
<event>
 6    0  0.1539497E-004  0.4483265E+03  0.7546771E-02  0.1028222E+00
         21   -1    0    0  502  501  0.00000000000E+00  0.00000000000E+00  0.76348482754E+03  0.76348482754E+03  0.00000000000E+00 0.  1.
         21   -1    0    0  501  502 -0.00000000000E+00 -0.00000000000E+00 -0.65815536233E+02  0.65815536233E+02  0.00000000000E+00 0.  1.
      99925    2    1    2    0    0 -0.17660376328E+02  0.80326561947E+02  0.56775817494E+03  0.63108671212E+03  0.26297689548E+03 0.  0.
         25    1    1    2    0    0  0.17660376328E+02 -0.80326561947E+02  0.12991111637E+03  0.19821365165E+03  0.12509000000E+03 0.  0.
         25    1    3    3    0    0 -0.63365878517E+01  0.46977127806E+02  0.19624563183E+03  0.23750128209E+03  0.12509000000E+03 0.  0.
         25    1    3    3    0    0 -0.11323788476E+02  0.33349434141E+02  0.37151254311E+03  0.39358543003E+03  0.12509000000E+03 0.  0.
<mgrwt>
<rscale>  2 0.44832650E+03</rscale>
<asrwt>0</asrwt>
<pdfrwt beam="1">  1       21 0.11227718E+00 0.44832650E+03</pdfrwt>
<pdfrwt beam="2">  1       21 0.96787558E-02 0.44832650E+03</pdfrwt>
<totfact> 0.48890105E+04</totfact>
</mgrwt>
</event>
<event>
 6    0  0.1539497E-004  0.3977186E+03  0.7546771E-02  0.1044573E+00
         21   -1    0    0  502  501  0.00000000000E+00  0.00000000000E+00  0.62781076386E+02  0.62781076386E+02  0.00000000000E+00 0. -1.
         21   -1    0    0  501  502 -0.00000000000E+00 -0.00000000000E+00 -0.62988759839E+03  0.62988759839E+03  0.00000000000E+00 0. -1.
      99925    2    1    2    0    0  0.13169762814E+02 -0.19820737952E+02 -0.43694530273E+03  0.51058145554E+03  0.26307018239E+03 0.  0.
         25    1    3    3    0    0 -0.24506717390E+02 -0.38919162200E+01 -0.16568839657E+03  0.20908342609E+03  0.12509000000E+03 0.  0.
         25    1    1    2    0    0 -0.13169762814E+02  0.19820737952E+02 -0.13016121928E+03  0.18208721924E+03  0.12509000000E+03 0.  0.
         25    1    3    3    0    0  0.37676480204E+02 -0.15928821732E+02 -0.27125690616E+03  0.30149802945E+03  0.12509000000E+03 0.  0.
<mgrwt>
<rscale>  2 0.39771860E+03</rscale>
<asrwt>0</asrwt>
<pdfrwt beam="1">  1       21 0.92325113E-02 0.39771860E+03</pdfrwt>
<pdfrwt beam="2">  1       21 0.92630528E-01 0.39771860E+03</pdfrwt>
<totfact> 0.86007345E+04</totfact>
</mgrwt>
</event>
<event>
 6    0  0.1539497E-004  0.4113981E+03  0.7546771E-02  0.1039903E+00
         21   -1    0    0  502  501  0.00000000000E+00  0.00000000000E+00  0.27725618201E+03  0.27725618201E+03  0.00000000000E+00 0. -1.
         21   -1    0    0  501  502 -0.00000000000E+00 -0.00000000000E+00 -0.15261008555E+03  0.15261008555E+03  0.00000000000E+00 0. -1.
      99925    2    1    2    0    0 -0.84055945839E+01 -0.53388035865E+02  0.45635328221E+02  0.27235072550E+03  0.26300455909E+03 0.  0.
         25    1    3    3    0    0 -0.11014181752E+02 -0.66323406266E+02  0.14361107468E+02  0.14273701666E+03  0.12509000000E+03 0.  0.
         25    1    1    2    0    0  0.84055945839E+01  0.53388035865E+02  0.79010768236E+02  0.15751554206E+03  0.12509000000E+03 0.  0.
         25    1    3    3    0    0  0.26085871683E+01  0.12935370400E+02  0.31274220752E+02  0.12961370884E+03  0.12509000000E+03 0.  0.
<mgrwt>
<rscale>  2 0.41139805E+03</rscale>
<asrwt>0</asrwt>
<pdfrwt beam="1">  1       21 0.40772968E-01 0.41139805E+03</pdfrwt>
<pdfrwt beam="2">  1       21 0.22442659E-01 0.41139805E+03</pdfrwt>
<totfact> 0.10129966E+05</totfact>
</mgrwt>
</event>
<event>
 6    0  0.1539497E-004  0.4064791E+03  0.7546771E-02  0.1041559E+00
         21   -1    0    0  502  501  0.00000000000E+00  0.00000000000E+00  0.10514351332E+03  0.10514351332E+03  0.00000000000E+00 0.  1.
         21   -1    0    0  501  502 -0.00000000000E+00 -0.00000000000E+00 -0.39285649298E+03  0.39285649298E+03  0.00000000000E+00 0.  1.
      99925    2    1    2    0    0  0.37270999735E+02 -0.42848424840E+02 -0.18815514567E+03  0.32834039017E+03  0.26302079394E+03 0.  0.
         25    1    1    2    0    0 -0.37270999735E+02  0.42848424840E+02 -0.99557834002E+02  0.16965961612E+03  0.12509000000E+03 0.  0.
         25    1    3    3    0    0  0.22486344940E+02 -0.58513237171E+02 -0.11966296761E+03  0.18410912131E+03  0.12509000000E+03 0.  0.
         25    1    3    3    0    0  0.14784654795E+02  0.15664812331E+02 -0.68492178057E+02  0.14423126886E+03  0.12509000000E+03 0.  0.
<mgrwt>
<rscale>  2 0.40647909E+03</rscale>
<asrwt>0</asrwt>
<pdfrwt beam="1">  1       21 0.15462282E-01 0.40647909E+03</pdfrwt>
<pdfrwt beam="2">  1       21 0.57773012E-01 0.40647909E+03</pdfrwt>
<totfact> 0.98031541E+04</totfact>
</mgrwt>
</event>
<event>
 6    0  0.1539497E-004  0.5300971E+03  0.7546771E-02  0.1006209E+00
         21   -1    0    0  502  501  0.00000000000E+00  0.00000000000E+00  0.20532367298E+03  0.20532367298E+03  0.00000000000E+00 0.  1.
         21   -1    0    0  501  502 -0.00000000000E+00 -0.00000000000E+00 -0.34214633397E+03  0.34214633397E+03  0.00000000000E+00 0.  1.
      99925    2    1    2    0    0  0.81139261137E+02  0.14239953123E+03 -0.20042513709E+02  0.31051786602E+03  0.26297991666E+03 0.  0.
         25    1    1    2    0    0 -0.81139261137E+02 -0.14239953123E+03 -0.11678014729E+03  0.23695214093E+03  0.12509000000E+03 0.  0.
         25    1    3    3    0    0  0.78977719684E+02  0.94573928566E+02 -0.18672193852E+02  0.17657255476E+03  0.12509000000E+03 0.  0.
         25    1    3    3    0    0  0.21615414525E+01  0.47825602663E+02 -0.13703198572E+01  0.13394531126E+03  0.12509000000E+03 0.  0.
<mgrwt>
<rscale>  2 0.53009713E+03</rscale>
<asrwt>0</asrwt>
<pdfrwt beam="1">  1       21 0.30194658E-01 0.53009713E+03</pdfrwt>
<pdfrwt beam="2">  1       21 0.50315637E-01 0.53009713E+03</pdfrwt>
<totfact> 0.35604905E+04</totfact>
</mgrwt>
</event>
<event>
 6    0  0.1539497E-004  0.4184377E+03  0.7546771E-02  0.1037576E+00
         21   -1    0    0  502  501  0.00000000000E+00  0.00000000000E+00  0.97306182671E+03  0.97306182671E+03  0.00000000000E+00 0.  1.
         21   -1    0    0  501  502 -0.00000000000E+00 -0.00000000000E+00 -0.44984314966E+02  0.44984314966E+02  0.00000000000E+00 0.  1.
      99925    2    1    2    0    0  0.15977183865E+02 -0.55637027153E+02  0.49451305277E+03  0.56309955429E+03  0.26303459750E+03 0.  0.
         25    1    3    3    0    0 -0.24296541749E+02 -0.23927593057E+01  0.22689370856E+03  0.26023894851E+03  0.12509000000E+03 0.  0.
         25    1    3    3    0    0  0.40273725614E+02 -0.53244267847E+02  0.26761934421E+03  0.30286060578E+03  0.12509000000E+03 0.  0.
         25    1    1    2    0    0 -0.15977183865E+02  0.55637027153E+02  0.43356445897E+03  0.45494658739E+03  0.12509000000E+03 0.  0.
<mgrwt>
<rscale>  2 0.41843766E+03</rscale>
<asrwt>0</asrwt>
<pdfrwt beam="1">  1       21 0.14309731E+00 0.41843766E+03</pdfrwt>
<pdfrwt beam="2">  1       21 0.66153410E-02 0.41843766E+03</pdfrwt>
<totfact> 0.51738145E+04</totfact>
</mgrwt>
</event>
<event>
 6    0  0.1539497E-004  0.4825808E+03  0.7546771E-02  0.1018428E+00
         21   -1    0    0  502  501  0.00000000000E+00  0.00000000000E+00  0.11153998830E+03  0.11153998830E+03  0.00000000000E+00 0.  1.
         21   -1    0    0  501  502 -0.00000000000E+00 -0.00000000000E+00 -0.52197479302E+03  0.52197479302E+03  0.00000000000E+00 0.  1.
      99925    2    1    2    0    0  0.60348873578E+01  0.60529519451E+02 -0.41418092464E+03  0.49436815324E+03  0.26297108209E+03 0.  0.
         25    1    3    3    0    0  0.36058333639E+02  0.48773939411E+02 -0.24240407380E+03  0.27943933811E+03  0.12509000000E+03 0.  0.
         25    1    3    3    0    0 -0.30023446282E+02  0.11755580040E+02 -0.17177685084E+03  0.21492881513E+03  0.12509000000E+03 0.  0.
         25    1    1    2    0    0 -0.60348873578E+01 -0.60529519451E+02  0.37461199214E+01  0.13914662808E+03  0.12509000000E+03 0.  0.
<mgrwt>
<rscale>  2 0.48258082E+03</rscale>
<asrwt>0</asrwt>
<pdfrwt beam="1">  1       21 0.16402940E-01 0.48258082E+03</pdfrwt>
<pdfrwt beam="2">  1       21 0.76760998E-01 0.48258082E+03</pdfrwt>
<totfact> 0.45835382E+04</totfact>
</mgrwt>
</event>
<event>
 5    0  0.1766190E-004  0.4046835E+03  0.7546771E-02  0.1042170E+00
         21   -1    0    0  502  501  0.00000000000E+00  0.00000000000E+00  0.75252176747E+02  0.75252176747E+02  0.00000000000E+00 0. -1.
         21   -1    0    0  501  502 -0.00000000000E+00 -0.00000000000E+00 -0.54406652073E+03  0.54406652073E+03  0.00000000000E+00 0. -1.
         25    1    1    2    0    0  0.32929228069E+02  0.29697226570E+02 -0.17671085842E+03  0.22099885726E+03  0.12509000000E+03 0.  0.
         25    1    1    2    0    0 -0.49524165017E+02  0.15266188110E+02 -0.16737434715E+03  0.21528441561E+03  0.12509000000E+03 0.  0.
         25    1    1    2    0    0  0.16594936948E+02 -0.44963414680E+02 -0.12472913842E+03  0.18303542461E+03  0.12509000000E+03 0.  0.
<mgrwt>
<rscale>  2 0.40468353E+03</rscale>
<asrwt>0</asrwt>
<pdfrwt beam="1">  1       21 0.11066497E-01 0.40468353E+03</pdfrwt>
<pdfrwt beam="2">  1       21 0.80009783E-01 0.40468353E+03</pdfrwt>
<totfact> 0.87361792E+04</totfact>
</mgrwt>
</event>
<event>
 6    0  0.1539497E-004  0.4229256E+03  0.7546771E-02  0.1036118E+00
         21   -1    0    0  502  501  0.00000000000E+00  0.00000000000E+00  0.28336592938E+03  0.28336592938E+03  0.00000000000E+00 0. -1.
         21   -1    0    0  501  502 -0.00000000000E+00 -0.00000000000E+00 -0.15780480855E+03  0.15780480855E+03  0.00000000000E+00 0. -1.
      99925    2    1    2    0    0  0.21902176720E+02  0.45764701207E+02  0.17561937427E+02  0.26829666544E+03  0.26286986479E+03 0.  0.
         25    1    3    3    0    0  0.26953688497E+02  0.38885903844E+02 -0.24668196377E+02  0.13599501040E+03  0.12509000000E+03 0.  0.
         25    1    1    2    0    0 -0.21902176720E+02 -0.45764701207E+02  0.10799918340E+03  0.17287407248E+03  0.12509000000E+03 0.  0.
         25    1    3    3    0    0 -0.50515117775E+01  0.68787973629E+01  0.42230133805E+02  0.13230165504E+03  0.12509000000E+03 0.  0.
<mgrwt>
<rscale>  2 0.42292555E+03</rscale>
<asrwt>0</asrwt>
<pdfrwt beam="1">  1       21 0.41671460E-01 0.42292555E+03</pdfrwt>
<pdfrwt beam="2">  1       21 0.23206590E-01 0.42292555E+03</pdfrwt>
<totfact> 0.90587124E+04</totfact>
</mgrwt>
</event>
<event>
 6    0  0.1539497E-004  0.5340255E+03  0.7546771E-02  0.1005261E+00
         21   -1    0    0  502  501  0.00000000000E+00  0.00000000000E+00  0.13511753156E+03  0.13511753156E+03  0.00000000000E+00 0. -1.
         21   -1    0    0  501  502 -0.00000000000E+00 -0.00000000000E+00 -0.52765771056E+03  0.52765771056E+03  0.00000000000E+00 0. -1.
      99925    2    1    2    0    0 -0.22988142108E+01  0.17423904357E+03 -0.19242870009E+03  0.36942112003E+03  0.26282813863E+03 0.  0.
         25    1    1    2    0    0  0.22988142108E+01 -0.17423904357E+03 -0.20011147891E+03  0.29335412209E+03  0.12509000000E+03 0.  0.
         25    1    3    3    0    0  0.14215861132E+02  0.12227898595E+03 -0.81211524879E+02  0.19338319727E+03  0.12509000000E+03 0.  0.
         25    1    3    3    0    0 -0.16514675343E+02  0.51960057620E+02 -0.11121717521E+03  0.17603792276E+03  0.12509000000E+03 0.  0.
<mgrwt>
<rscale>  2 0.53402550E+03</rscale>
<asrwt>0</asrwt>
<pdfrwt beam="1">  1       21 0.19870225E-01 0.53402550E+03</pdfrwt>
<pdfrwt beam="2">  1       21 0.77596722E-01 0.53402550E+03</pdfrwt>
<totfact> 0.30789845E+04</totfact>
</mgrwt>
</event>
<event>
 6    0  0.1539497E-004  0.4623446E+03  0.7546771E-02  0.1024103E+00
         21   -1    0    0  502  501  0.00000000000E+00  0.00000000000E+00  0.52071808886E+02  0.52071808886E+02  0.00000000000E+00 0. -1.
         21   -1    0    0  501  502 -0.00000000000E+00 -0.00000000000E+00 -0.10262874173E+04  0.10262874173E+04  0.00000000000E+00 0. -1.
      99925    2    1    2    0    0 -0.89185775827E+01  0.63222694195E+02 -0.84606130252E+03  0.88823378259E+03  0.26279816366E+03 0.  0.
         25    1    3    3    0    0 -0.11129732698E+02  0.21619405653E+01 -0.31218331766E+03  0.33650330885E+03  0.12509000000E+03 0.  0.
         25    1    1    2    0    0  0.89185775827E+01 -0.63222694195E+02 -0.12815430592E+03  0.19012544362E+03  0.12509000000E+03 0.  0.
         25    1    3    3    0    0  0.22111551152E+01  0.61060753629E+02 -0.53387798486E+03  0.55173047374E+03  0.12509000000E+03 0.  0.
<mgrwt>
<rscale>  2 0.46234464E+03</rscale>
<asrwt>0</asrwt>
<pdfrwt beam="1">  1       21 0.76576197E-02 0.46234464E+03</pdfrwt>
<pdfrwt beam="2">  1       21 0.15092461E+00 0.46234464E+03</pdfrwt>
<totfact> 0.34248416E+04</totfact>
</mgrwt>
</event>
<event>
 6    0  0.1539497E-004  0.4075087E+03  0.7546771E-02  0.1041210E+00
         21   -1    0    0  502  501  0.00000000000E+00  0.00000000000E+00  0.65178596014E+02  0.65178596014E+02  0.00000000000E+00 0. -1.
         21   -1    0    0  501  502 -0.00000000000E+00 -0.00000000000E+00 -0.63695507321E+03  0.63695507321E+03  0.00000000000E+00 0. -1.
      99925    2    1    2    0    0 -0.93758502353E+01 -0.53466866314E+02 -0.41611130218E+03  0.49518979477E+03  0.26290246230E+03 0.  0.
         25    1    1    2    0    0  0.93758502353E+01  0.53466866314E+02 -0.15566517502E+03  0.20694387446E+03  0.12509000000E+03 0.  0.
         25    1    3    3    0    0 -0.23859556875E+02 -0.60924786786E+02 -0.24233621359E+03  0.28045580154E+03  0.12509000000E+03 0.  0.
         25    1    3    3    0    0  0.14483706639E+02  0.74579204727E+01 -0.17377508859E+03  0.21473399323E+03  0.12509000000E+03 0.  0.
<mgrwt>
<rscale>  2 0.40750871E+03</rscale>
<asrwt>0</asrwt>
<pdfrwt beam="1">  1       21 0.95850877E-02 0.40750871E+03</pdfrwt>
<pdfrwt beam="2">  1       21 0.93669864E-01 0.40750871E+03</pdfrwt>
<totfact> 0.78150130E+04</totfact>
</mgrwt>
</event>
<event>
 6    0  0.1539497E-004  0.4040643E+03  0.7546771E-02  0.1042381E+00
         21   -1    0    0  502  501  0.00000000000E+00  0.00000000000E+00  0.53289197322E+02  0.53289197322E+02  0.00000000000E+00 0. -1.
         21   -1    0    0  501  502 -0.00000000000E+00 -0.00000000000E+00 -0.76595231782E+03  0.76595231782E+03  0.00000000000E+00 0. -1.
      99925    2    1    2    0    0  0.25515271102E+02  0.95135757554E+01 -0.56392753363E+03  0.62299850231E+03  0.26338438358E+03 0.  0.
         25    1    3    3    0    0  0.23902312667E+02 -0.13446860097E+02 -0.20000925974E+03  0.23749389609E+03  0.12509000000E+03 0.  0.
         25    1    1    2    0    0 -0.25515271102E+02 -0.95135757554E+01 -0.14873558687E+03  0.19624301283E+03  0.12509000000E+03 0.  0.
         25    1    3    3    0    0  0.16129584346E+01  0.22960435852E+02 -0.36391827389E+03  0.38550460623E+03  0.12509000000E+03 0.  0.
<mgrwt>
<rscale>  2 0.40406427E+03</rscale>
<asrwt>0</asrwt>
<pdfrwt beam="1">  1       21 0.78366465E-02 0.40406427E+03</pdfrwt>
<pdfrwt beam="2">  1       21 0.11264005E+00 0.40406427E+03</pdfrwt>
<totfact> 0.71374958E+04</totfact>
</mgrwt>
</event>
<event>
 6    0  0.1539497E-004  0.4046613E+03  0.7546771E-02  0.1042177E+00
         21   -1    0    0  502  501  0.00000000000E+00  0.00000000000E+00  0.10654913900E+03  0.10654913900E+03  0.00000000000E+00 0.  1.
         21   -1    0    0  501  502 -0.00000000000E+00 -0.00000000000E+00 -0.38421417136E+03  0.38421417136E+03  0.00000000000E+00 0.  1.
      99925    2    1    2    0    0  0.81774495129E+01  0.45429661203E+02 -0.21671487235E+03  0.34415787082E+03  0.26334118430E+03 0.  0.
         25    1    3    3    0    0 -0.35653537529E+01  0.41208616493E+02 -0.15708306760E+03  0.20502063322E+03  0.12509000000E+03 0.  0.
         25    1    3    3    0    0  0.11742803266E+02  0.42210447095E+01 -0.59631804755E+02  0.13913723759E+03  0.12509000000E+03 0.  0.
         25    1    1    2    0    0 -0.81774495129E+01 -0.45429661203E+02 -0.60950160004E+02  0.14660543954E+03  0.12509000000E+03 0.  0.
<mgrwt>
<rscale>  2 0.40466129E+03</rscale>
<asrwt>0</asrwt>
<pdfrwt beam="1">  1       21 0.15668991E-01 0.40466129E+03</pdfrwt>
<pdfrwt beam="2">  1       21 0.56502083E-01 0.40466129E+03</pdfrwt>
<totfact> 0.10040677E+05</totfact>
</mgrwt>
</event>
<event>
 6    0  0.1539497E-004  0.4028538E+03  0.7546771E-02  0.1042796E+00
         21   -1    0    0  502  501  0.00000000000E+00  0.00000000000E+00  0.15284201231E+03  0.15284201231E+03  0.00000000000E+00 0.  1.
         21   -1    0    0  501  502 -0.00000000000E+00 -0.00000000000E+00 -0.26545577532E+03  0.26545577532E+03  0.00000000000E+00 0.  1.
      99925    2    1    2    0    0  0.48734198914E+02  0.72163949683E+01 -0.87781415740E+02  0.28158183365E+03  0.26297462538E+03 0.  0.
         25    1    3    3    0    0  0.23413506017E+02 -0.28138373369E+02 -0.70046712213E+02  0.14796624720E+03  0.12509000000E+03 0.  0.
         25    1    3    3    0    0  0.25320692897E+02  0.35354768338E+02 -0.17734703527E+02  0.13361558645E+03  0.12509000000E+03 0.  0.
         25    1    1    2    0    0 -0.48734198914E+02 -0.72163949683E+01 -0.24832347264E+02  0.13671595397E+03  0.12509000000E+03 0.  0.
<mgrwt>
<rscale>  2 0.40285379E+03</rscale>
<asrwt>0</asrwt>
<pdfrwt beam="1">  1       21 0.22476767E-01 0.40285379E+03</pdfrwt>
<pdfrwt beam="2">  1       21 0.39037614E-01 0.40285379E+03</pdfrwt>
<totfact> 0.11063832E+05</totfact>
</mgrwt>
</event>
<event>
 6    0  0.1539497E-004  0.4481674E+03  0.7546771E-02  0.1028270E+00
         21   -1    0    0  502  501  0.00000000000E+00  0.00000000000E+00  0.22786874536E+02  0.22786874536E+02  0.00000000000E+00 0. -1.
         21   -1    0    0  501  502 -0.00000000000E+00 -0.00000000000E+00 -0.22036151533E+04  0.22036151533E+04  0.00000000000E+00 0. -1.
      99925    2    1    2    0    0 -0.92679395992E+02 -0.22031253510E+02 -0.16194319375E+04  0.16434027083E+04  0.26294070559E+03 0.  0.
         25    1    1    2    0    0  0.92679395992E+02  0.22031253510E+02 -0.56139634121E+03  0.58299931955E+03  0.12509000000E+03 0.  0.
         25    1    3    3    0    0 -0.86932853224E+02 -0.38407211937E+01 -0.94419205359E+03  0.95640902039E+03  0.12509000000E+03 0.  0.
         25    1    3    3    0    0 -0.57465427678E+01 -0.18190532316E+02 -0.67523988394E+03  0.68699368788E+03  0.12509000000E+03 0.  0.
<mgrwt>
<rscale>  2 0.44816739E+03</rscale>
<asrwt>0</asrwt>
<pdfrwt beam="1">  1       21 0.33510133E-02 0.44816739E+03</pdfrwt>
<pdfrwt beam="2">  1       21 0.32406083E+00 0.44816739E+03</pdfrwt>
<totfact> 0.10921369E+04</totfact>
</mgrwt>
</event>
<event>
 6    0  0.1539497E-004  0.4231129E+03  0.7546771E-02  0.1036058E+00
         21   -1    0    0  502  501  0.00000000000E+00  0.00000000000E+00  0.91818018880E+03  0.91818018880E+03  0.00000000000E+00 0.  1.
         21   -1    0    0  501  502 -0.00000000000E+00 -0.00000000000E+00 -0.48744385460E+02  0.48744385460E+02  0.00000000000E+00 0.  1.
      99925    2    1    2    0    0 -0.40811278585E+02 -0.38571364648E+02  0.69367544259E+03  0.74400637594E+03  0.26307139175E+03 0.  0.
         25    1    3    3    0    0 -0.56149502959E+02 -0.27520463778E+02  0.31195263717E+03  0.34186561475E+03  0.12509000000E+03 0.  0.
         25    1    3    3    0    0  0.15338224374E+02 -0.11050900871E+02  0.38172280542E+03  0.40214076120E+03  0.12509000000E+03 0.  0.
         25    1    1    2    0    0  0.40811278585E+02  0.38571364648E+02  0.17576036075E+03  0.22291819832E+03  0.12509000000E+03 0.  0.
<mgrwt>
<rscale>  2 0.42311289E+03</rscale>
<asrwt>0</asrwt>
<pdfrwt beam="1">  1       21 0.13502649E+00 0.42311289E+03</pdfrwt>
<pdfrwt beam="2">  1       21 0.71682926E-02 0.42311289E+03</pdfrwt>
<totfact> 0.52344008E+04</totfact>
</mgrwt>
</event>
<event>
 6    0  0.1539497E-004  0.4010123E+03  0.7546771E-02  0.1043430E+00
         21   -1    0    0  502  501  0.00000000000E+00  0.00000000000E+00  0.82130305269E+02  0.82130305269E+02  0.00000000000E+00 0. -1.
         21   -1    0    0  501  502 -0.00000000000E+00 -0.00000000000E+00 -0.48949919288E+03  0.48949919288E+03  0.00000000000E+00 0. -1.
      99925    2    1    2    0    0 -0.14544742344E+02 -0.43773816707E+02 -0.25431186519E+03  0.36864758572E+03  0.26286654622E+03 0.  0.
         25    1    3    3    0    0  0.24512219159E+02  0.28674131220E+01 -0.13011904868E+03  0.18217449293E+03  0.12509000000E+03 0.  0.
         25    1    3    3    0    0 -0.39056961503E+02 -0.46641229829E+02 -0.12419281650E+03  0.18647309279E+03  0.12509000000E+03 0.  0.
         25    1    1    2    0    0  0.14544742344E+02  0.43773816707E+02 -0.15305702242E+03  0.20298191242E+03  0.12509000000E+03 0.  0.
<mgrwt>
<rscale>  2 0.40101231E+03</rscale>
<asrwt>0</asrwt>
<pdfrwt beam="1">  1       21 0.12077987E-01 0.40101231E+03</pdfrwt>
<pdfrwt beam="2">  1       21 0.71985173E-01 0.40101231E+03</pdfrwt>
<totfact> 0.94944255E+04</totfact>
</mgrwt>
</event>
<event>
 6    0  0.1539497E-004  0.4115876E+03  0.7546771E-02  0.1039840E+00
         21   -1    0    0  502  501  0.00000000000E+00  0.00000000000E+00  0.64853472302E+03  0.64853472302E+03  0.00000000000E+00 0.  1.
         21   -1    0    0  501  502 -0.00000000000E+00 -0.00000000000E+00 -0.65302734833E+02  0.65302734833E+02  0.00000000000E+00 0.  1.
      99925    2    1    2    0    0  0.44093753840E+02  0.69533320770E+01  0.46471344824E+03  0.53582970419E+03  0.26298721444E+03 0.  0.
         25    1    3    3    0    0  0.36910881915E+02 -0.27341092100E+02  0.27902289840E+03  0.30921066355E+03  0.12509000000E+03 0.  0.
         25    1    1    2    0    0 -0.44093753840E+02 -0.69533320770E+01  0.11851853994E+03  0.17800775366E+03  0.12509000000E+03 0.  0.
         25    1    3    3    0    0  0.71828719250E+01  0.34294424177E+02  0.18569054984E+03  0.22661904064E+03  0.12509000000E+03 0.  0.
<mgrwt>
<rscale>  2 0.41158761E+03</rscale>
<asrwt>0</asrwt>
<pdfrwt beam="1">  1       21 0.95372750E-01 0.41158761E+03</pdfrwt>
<pdfrwt beam="2">  1       21 0.96033437E-02 0.41158761E+03</pdfrwt>
<totfact> 0.74534649E+04</totfact>
</mgrwt>
</event>
<event>
 6    0  0.1539497E-004  0.4023075E+03  0.7546771E-02  0.1042984E+00
         21   -1    0    0  502  501  0.00000000000E+00  0.00000000000E+00  0.80410543617E+03  0.80410543617E+03  0.00000000000E+00 0.  1.
         21   -1    0    0  501  502 -0.00000000000E+00 -0.00000000000E+00 -0.50320294081E+02  0.50320294081E+02  0.00000000000E+00 0.  1.
      99925    2    1    2    0    0 -0.32789328461E+02 -0.32638219631E+02  0.46126360990E+03  0.53293428661E+03  0.26289625821E+03 0.  0.
         25    1    3    3    0    0 -0.25756749201E+02  0.21588705781E+02  0.24635192950E+03  0.27832761921E+03  0.12509000000E+03 0.  0.
         25    1    1    2    0    0  0.32789328461E+02  0.32638219631E+02  0.29252153218E+03  0.32149144364E+03  0.12509000000E+03 0.  0.
         25    1    3    3    0    0 -0.70325792598E+01 -0.54226925412E+02  0.21491168040E+03  0.25460666740E+03  0.12509000000E+03 0.  0.
<mgrwt>
<rscale>  2 0.40230745E+03</rscale>
<asrwt>0</asrwt>
<pdfrwt beam="1">  1       21 0.11825079E+00 0.40230745E+03</pdfrwt>
<pdfrwt beam="2">  1       21 0.74000438E-02 0.40230745E+03</pdfrwt>
<totfact> 0.69977699E+04</totfact>
</mgrwt>
</event>
<event>
 6    0  0.1539497E-004  0.4158647E+03  0.7546771E-02  0.1038421E+00
         21   -1    0    0  502  501  0.00000000000E+00  0.00000000000E+00  0.41897651539E+03  0.41897651539E+03  0.00000000000E+00 0. -1.
         21   -1    0    0  501  502 -0.00000000000E+00 -0.00000000000E+00 -0.10319402166E+03  0.10319402166E+03  0.00000000000E+00 0. -1.
      99925    2    1    2    0    0  0.34765276755E+02  0.23235074343E+02  0.13570488882E+03  0.29895775730E+03  0.26308065428E+03 0.  0.
         25    1    3    3    0    0 -0.77861468118E+01 -0.18034408349E+02  0.79797330914E+02  0.14966958972E+03  0.12509000000E+03 0.  0.
         25    1    1    2    0    0 -0.34765276755E+02 -0.23235074343E+02  0.18007760491E+03  0.22321277974E+03  0.12509000000E+03 0.  0.
         25    1    3    3    0    0  0.42551423567E+02  0.41269482692E+02  0.55907557905E+02  0.14928816758E+03  0.12509000000E+03 0.  0.
<mgrwt>
<rscale>  2 0.41586475E+03</rscale>
<asrwt>0</asrwt>
<pdfrwt beam="1">  1       21 0.61614193E-01 0.41586475E+03</pdfrwt>
<pdfrwt beam="2">  1       21 0.15175592E-01 0.41586475E+03</pdfrwt>
<totfact> 0.88004028E+04</totfact>
</mgrwt>
</event>
<event>
 6    0  0.1539497E-004  0.3966247E+03  0.7546771E-02  0.1044955E+00
         21   -1    0    0  502  501  0.00000000000E+00  0.00000000000E+00  0.62900301106E+02  0.62900301106E+02  0.00000000000E+00 0. -1.
         21   -1    0    0  501  502 -0.00000000000E+00 -0.00000000000E+00 -0.62523995118E+03  0.62523995118E+03  0.00000000000E+00 0. -1.
      99925    2    1    2    0    0 -0.22905765836E+02 -0.25457035874E+02 -0.34596951979E+03  0.43587793611E+03  0.26291050146E+03 0.  0.
         25    1    3    3    0    0 -0.38095874103E+02  0.11145768966E+02 -0.20389151696E+03  0.24247635468E+03  0.12509000000E+03 0.  0.
         25    1    3    3    0    0  0.15190108267E+02 -0.36602804839E+02 -0.14207800283E+03  0.19340158143E+03  0.12509000000E+03 0.  0.
         25    1    1    2    0    0  0.22905765836E+02  0.25457035874E+02 -0.21637013028E+03  0.25226231617E+03  0.12509000000E+03 0.  0.
<mgrwt>
<rscale>  2 0.39662466E+03</rscale>
<asrwt>0</asrwt>
<pdfrwt beam="1">  1       21 0.92500443E-02 0.39662466E+03</pdfrwt>
<pdfrwt beam="2">  1       21 0.91947052E-01 0.39662466E+03</pdfrwt>
<totfact> 0.87258654E+04</totfact>
</mgrwt>
</event>
<event>
 6    0  0.1539497E-004  0.4986134E+03  0.7546771E-02  0.1014141E+00
         21   -1    0    0  502  501  0.00000000000E+00  0.00000000000E+00  0.21116138734E+03  0.21116138734E+03  0.00000000000E+00 0. -1.
         21   -1    0    0  501  502 -0.00000000000E+00 -0.00000000000E+00 -0.29434273934E+03  0.29434273934E+03  0.00000000000E+00 0. -1.
      99925    2    1    2    0    0  0.13710106960E+03  0.18821703381E+02  0.93278154590E+01  0.29728209622E+03  0.26294234499E+03 0.  0.
         25    1    3    3    0    0  0.23036894398E+02  0.10977195394E+02  0.42828144363E+01  0.12773820071E+03  0.12509000000E+03 0.  0.
         25    1    3    3    0    0  0.11406417520E+03  0.78445079872E+01  0.50450010227E+01  0.16954389551E+03  0.12509000000E+03 0.  0.
         25    1    1    2    0    0 -0.13710106960E+03 -0.18821703381E+02 -0.92509167464E+02  0.20822203046E+03  0.12509000000E+03 0.  0.
<mgrwt>
<rscale>  2 0.49861336E+03</rscale>
<asrwt>0</asrwt>
<pdfrwt beam="1">  1       21 0.31053145E-01 0.49861336E+03</pdfrwt>
<pdfrwt beam="2">  1       21 0.43285697E-01 0.49861336E+03</pdfrwt>
<totfact> 0.46549367E+04</totfact>
</mgrwt>
</event>
<event>
 6    0  0.1539497E-004  0.4896591E+03  0.7546771E-02  0.1016514E+00
         21   -1    0    0  502  501  0.00000000000E+00  0.00000000000E+00  0.54555954884E+03  0.54555954884E+03  0.00000000000E+00 0.  1.
         21   -1    0    0  501  502 -0.00000000000E+00 -0.00000000000E+00 -0.10987162850E+03  0.10987162850E+03  0.00000000000E+00 0.  1.
      99925    2    1    2    0    0  0.28202678378E+02 -0.10750600443E+03  0.38748138064E+03  0.48129240904E+03  0.26295937062E+03 0.  0.
         25    1    3    3    0    0  0.21222386736E+02 -0.44595055865E+02  0.25557728841E+03  0.28880160518E+03  0.12509000000E+03 0.  0.
         25    1    3    3    0    0  0.69802916415E+01 -0.62910948561E+02  0.13190409224E+03  0.19249080385E+03  0.12509000000E+03 0.  0.
         25    1    1    2    0    0 -0.28202678378E+02  0.10750600443E+03  0.48206539696E+02  0.17413876830E+03  0.12509000000E+03 0.  0.
<mgrwt>
<rscale>  2 0.48965913E+03</rscale>
<asrwt>0</asrwt>
<pdfrwt beam="1">  1       21 0.80229344E-01 0.48965913E+03</pdfrwt>
<pdfrwt beam="2">  1       21 0.16157593E-01 0.48965913E+03</pdfrwt>
<totfact> 0.42515070E+04</totfact>
</mgrwt>
</event>
<event>
 6    0  0.1539497E-004  0.4474285E+03  0.7546771E-02  0.1028492E+00
         21   -1    0    0  502  501  0.00000000000E+00  0.00000000000E+00  0.19112808076E+03  0.19112808076E+03  0.00000000000E+00 0. -1.
         21   -1    0    0  501  502 -0.00000000000E+00 -0.00000000000E+00 -0.26185613446E+03  0.26185613446E+03  0.00000000000E+00 0. -1.
      99925    2    1    2    0    0  0.81509847635E+02 -0.38159928088E+02 -0.10130966772E+03  0.29587667692E+03  0.26301962627E+03 0.  0.
         25    1    3    3    0    0  0.37722678196E+02  0.27751891612E+01 -0.12744471226E+02  0.13130358629E+03  0.12509000000E+03 0.  0.
         25    1    1    2    0    0 -0.81509847635E+02  0.38159928088E+02  0.30581614024E+02  0.15710753830E+03  0.12509000000E+03 0.  0.
         25    1    3    3    0    0  0.43787169439E+02 -0.40935117249E+02 -0.88565196491E+02  0.16457309064E+03  0.12509000000E+03 0.  0.
<mgrwt>
<rscale>  2 0.44742848E+03</rscale>
<asrwt>0</asrwt>
<pdfrwt beam="1">  1       21 0.28107071E-01 0.44742848E+03</pdfrwt>
<pdfrwt beam="2">  1       21 0.38508255E-01 0.44742848E+03</pdfrwt>
<totfact> 0.73004263E+04</totfact>
</mgrwt>
</event>
<event>
 6    0  0.1539497E-004  0.4506726E+03  0.7546771E-02  0.1027522E+00
         21   -1    0    0  502  501  0.00000000000E+00  0.00000000000E+00  0.95958044750E+02  0.95958044750E+02  0.00000000000E+00 0.  1.
         21   -1    0    0  501  502 -0.00000000000E+00 -0.00000000000E+00 -0.52915254251E+03  0.52915254251E+03  0.00000000000E+00 0.  1.
      99925    2    1    2    0    0 -0.22191856067E+02 -0.10654292184E+03 -0.28285659724E+03  0.40129623316E+03  0.26303410326E+03 0.  0.
         25    1    3    3    0    0 -0.51036167853E+02 -0.51598148043E+02 -0.13322017385E+03  0.19662701272E+03  0.12509000000E+03 0.  0.
         25    1    1    2    0    0  0.22191856067E+02  0.10654292184E+03 -0.15033790052E+03  0.22381435410E+03  0.12509000000E+03 0.  0.
         25    1    3    3    0    0  0.28844311787E+02 -0.54944773794E+02 -0.14963642339E+03  0.20466922044E+03  0.12509000000E+03 0.  0.
<mgrwt>
<rscale>  2 0.45067258E+03</rscale>
<asrwt>0</asrwt>
<pdfrwt beam="1">  1       21 0.14111477E-01 0.45067258E+03</pdfrwt>
<pdfrwt beam="2">  1       21 0.77816549E-01 0.45067258E+03</pdfrwt>
<totfact> 0.59153911E+04</totfact>
</mgrwt>
</event>
<event>
 6    0  0.1539497E-004  0.4484464E+03  0.7546771E-02  0.1028186E+00
         21   -1    0    0  502  501  0.00000000000E+00  0.00000000000E+00  0.99991216366E+03  0.99991216366E+03  0.00000000000E+00 0.  1.
         21   -1    0    0  501  502 -0.00000000000E+00 -0.00000000000E+00 -0.50280464095E+02  0.50280464095E+02  0.00000000000E+00 0.  1.
      99925    2    1    2    0    0  0.87886738999E+01  0.70912177308E+02  0.41459149530E+03  0.49609759443E+03  0.26290861063E+03 0.  0.
         25    1    3    3    0    0 -0.23843995804E+02  0.46002184759E+02  0.16097397895E+03  0.21034463896E+03  0.12509000000E+03 0.  0.
         25    1    3    3    0    0  0.32632669704E+02  0.24909992549E+02  0.25361751635E+03  0.28575295547E+03  0.12509000000E+03 0.  0.
         25    1    1    2    0    0 -0.87886738999E+01 -0.70912177308E+02  0.53504020426E+03  0.55409503332E+03  0.12509000000E+03 0.  0.
<mgrwt>
<rscale>  2 0.44844642E+03</rscale>
<asrwt>0</asrwt>
<pdfrwt beam="1">  1       21 0.14704589E+00 0.44844642E+03</pdfrwt>
<pdfrwt beam="2">  1       21 0.73941865E-02 0.44844642E+03</pdfrwt>
<totfact> 0.39239390E+04</totfact>
</mgrwt>
</event>
<event>
 6    0  0.1539497E-004  0.4507307E+03  0.7546771E-02  0.1027504E+00
         21   -1    0    0  502  501  0.00000000000E+00  0.00000000000E+00  0.10785321845E+04  0.10785321845E+04  0.00000000000E+00 0.  1.
         21   -1    0    0  501  502 -0.00000000000E+00 -0.00000000000E+00 -0.47091357086E+02  0.47091357086E+02  0.00000000000E+00 0.  1.
      99925    2    1    2    0    0  0.64026859778E+01  0.10445285452E+02  0.92221395215E+03  0.95910592465E+03  0.26316440257E+03 0.  0.
         25    1    3    3    0    0 -0.28821082404E+02 -0.17238573312E+02  0.49821946849E+03  0.51477953541E+03  0.12509000000E+03 0.  0.
         25    1    3    3    0    0  0.35223768382E+02  0.27683858764E+02  0.42399448366E+03  0.44432638923E+03  0.12509000000E+03 0.  0.
         25    1    1    2    0    0 -0.64026859778E+01 -0.10445285452E+02  0.10922687531E+03  0.16651761699E+03  0.12509000000E+03 0.  0.
<mgrwt>
<rscale>  2 0.45073071E+03</rscale>
<asrwt>0</asrwt>
<pdfrwt beam="1">  1       21 0.15860766E+00 0.45073071E+03</pdfrwt>
<pdfrwt beam="2">  1       21 0.69252003E-02 0.45073071E+03</pdfrwt>
<totfact> 0.35782920E+04</totfact>
</mgrwt>
</event>
<event>
 6    0  0.1539497E-004  0.4035888E+03  0.7546771E-02  0.1042544E+00
         21   -1    0    0  502  501  0.00000000000E+00  0.00000000000E+00  0.73534439770E+03  0.73534439770E+03  0.00000000000E+00 0.  1.
         21   -1    0    0  501  502 -0.00000000000E+00 -0.00000000000E+00 -0.55376736188E+02  0.55376736188E+02  0.00000000000E+00 0.  1.
      99925    2    1    2    0    0  0.10323308834E+02  0.11101540282E+02  0.54926940174E+03  0.60917401023E+03  0.26299483673E+03 0.  0.
         25    1    3    3    0    0  0.35193719860E+02  0.12662344086E+01  0.33896721554E+03  0.36302407989E+03  0.12509000000E+03 0.  0.
         25    1    1    2    0    0 -0.10323308834E+02 -0.11101540282E+02  0.13069825978E+03  0.18154712366E+03  0.12509000000E+03 0.  0.
         25    1    3    3    0    0 -0.24870411026E+02  0.98353058738E+01  0.21030218620E+03  0.24614993034E+03  0.12509000000E+03 0.  0.
<mgrwt>
<rscale>  2 0.40358876E+03</rscale>
<asrwt>0</asrwt>
<pdfrwt beam="1">  1       21 0.10813888E+00 0.40358876E+03</pdfrwt>
<pdfrwt beam="2">  1       21 0.81436381E-02 0.40358876E+03</pdfrwt>
<totfact> 0.73778075E+04</totfact>
</mgrwt>
</event>
<event>
 6    0  0.1539497E-004  0.4211874E+03  0.7546771E-02  0.1036681E+00
         21   -1    0    0  502  501  0.00000000000E+00  0.00000000000E+00  0.20088926730E+02  0.20088926730E+02  0.00000000000E+00 0. -1.
         21   -1    0    0  501  502 -0.00000000000E+00 -0.00000000000E+00 -0.22076695593E+04  0.22076695593E+04  0.00000000000E+00 0. -1.
      99925    2    1    2    0    0  0.66585463308E+02  0.38985714913E+02 -0.14490138878E+04  0.14747101115E+04  0.26301170289E+03 0.  0.
         25    1    1    2    0    0 -0.66585463308E+02 -0.38985714913E+02 -0.73856674477E+03  0.75304837459E+03  0.12509000000E+03 0.  0.
         25    1    3    3    0    0  0.38593002843E+01  0.94417335531E+01 -0.82674383888E+03  0.83621583563E+03  0.12509000000E+03 0.  0.
         25    1    3    3    0    0  0.62726163024E+02  0.29543981360E+02 -0.62227004894E+03  0.63849427583E+03  0.12509000000E+03 0.  0.
<mgrwt>
<rscale>  2 0.42118743E+03</rscale>
<asrwt>0</asrwt>
<pdfrwt beam="1">  1       21 0.29542541E-02 0.42118743E+03</pdfrwt>
<pdfrwt beam="2">  1       21 0.32465727E+00 0.42118743E+03</pdfrwt>
<totfact> 0.13562929E+04</totfact>
</mgrwt>
</event>
<event>
 6    0  0.1539497E-004  0.4161113E+03  0.7546771E-02  0.1038339E+00
         21   -1    0    0  502  501  0.00000000000E+00  0.00000000000E+00  0.50375824048E+03  0.50375824048E+03  0.00000000000E+00 0.  1.
         21   -1    0    0  501  502 -0.00000000000E+00 -0.00000000000E+00 -0.85928423626E+02  0.85928423626E+02  0.00000000000E+00 0.  1.
      99925    2    1    2    0    0 -0.38296496908E+02  0.19757371729E+02  0.19411322649E+03  0.32977591728E+03  0.26308788552E+03 0.  0.
         25    1    3    3    0    0  0.12181622235E+02  0.31380778071E+02  0.76556831388E+02  0.15047126531E+03  0.12509000000E+03 0.  0.
         25    1    3    3    0    0 -0.50478119144E+02 -0.11623406342E+02  0.11755639510E+03  0.17930465197E+03  0.12509000000E+03 0.  0.
         25    1    1    2    0    0  0.38296496908E+02 -0.19757371729E+02  0.22371659036E+03  0.25991074683E+03  0.12509000000E+03 0.  0.
<mgrwt>
<rscale>  2 0.41611129E+03</rscale>
<asrwt>0</asrwt>
<pdfrwt beam="1">  1       21 0.74082093E-01 0.41611129E+03</pdfrwt>
<pdfrwt beam="2">  1       21 0.12636533E-01 0.41611129E+03</pdfrwt>
<totfact> 0.81665256E+04</totfact>
</mgrwt>
</event>
<event>
 6    0  0.1539497E-004  0.4465250E+03  0.7546771E-02  0.1028763E+00
         21   -1    0    0  502  501  0.00000000000E+00  0.00000000000E+00  0.11709818459E+04  0.11709818459E+04  0.00000000000E+00 0. -1.
         21   -1    0    0  501  502 -0.00000000000E+00 -0.00000000000E+00 -0.42567817118E+02  0.42567817118E+02  0.00000000000E+00 0. -1.
      99925    2    1    2    0    0  0.93793061054E+02  0.19935004448E+02  0.83442908582E+03  0.87997928440E+03  0.26248256896E+03 0.  0.
         25    1    1    2    0    0 -0.93793061054E+02 -0.19935004448E+02  0.29398494299E+03  0.33357037864E+03  0.12509000000E+03 0.  0.
         25    1    3    3    0    0  0.27617832778E+02  0.23958467334E+02  0.50239104674E+03  0.51901929135E+03  0.12509000000E+03 0.  0.
         25    1    3    3    0    0  0.66175228276E+02 -0.40234628855E+01  0.33203803908E+03  0.36095999306E+03  0.12509000000E+03 0.  0.
<mgrwt>
<rscale>  2 0.44652499E+03</rscale>
<asrwt>0</asrwt>
<pdfrwt beam="1">  1       21 0.17220319E+00 0.44652499E+03</pdfrwt>
<pdfrwt beam="2">  1       21 0.62599739E-02 0.44652499E+03</pdfrwt>
<totfact> 0.33913375E+04</totfact>
</mgrwt>
</event>
<event>
 6    0  0.1539497E-004  0.5051448E+03  0.7546771E-02  0.1012445E+00
         21   -1    0    0  502  501  0.00000000000E+00  0.00000000000E+00  0.53899499549E+03  0.53899499549E+03  0.00000000000E+00 0.  1.
         21   -1    0    0  501  502 -0.00000000000E+00 -0.00000000000E+00 -0.11835511013E+03  0.11835511013E+03  0.00000000000E+00 0.  1.
      99925    2    1    2    0    0  0.65519429393E+01  0.13184238868E+03  0.36142164877E+03  0.46609203114E+03  0.26304149841E+03 0.  0.
         25    1    3    3    0    0  0.22516504645E+02  0.44434819800E+02  0.12182840600E+03  0.18157949994E+03  0.12509000000E+03 0.  0.
         25    1    3    3    0    0 -0.15964561706E+02  0.87407568879E+02  0.23959324277E+03  0.28451253120E+03  0.12509000000E+03 0.  0.
         25    1    1    2    0    0 -0.65519429393E+01 -0.13184238868E+03  0.59218236587E+02  0.19125807448E+03  0.12509000000E+03 0.  0.
<mgrwt>
<rscale>  2 0.50514478E+03</rscale>
<asrwt>0</asrwt>
<pdfrwt beam="1">  1       21 0.79263969E-01 0.50514478E+03</pdfrwt>
<pdfrwt beam="2">  1       21 0.17405163E-01 0.50514478E+03</pdfrwt>
<totfact> 0.37905768E+04</totfact>
</mgrwt>
</event>
<event>
 6    0  0.1539497E-004  0.4141032E+03  0.7546771E-02  0.1039003E+00
         21   -1    0    0  502  501  0.00000000000E+00  0.00000000000E+00  0.34788918144E+03  0.34788918144E+03  0.00000000000E+00 0. -1.
         21   -1    0    0  501  502 -0.00000000000E+00 -0.00000000000E+00 -0.12322994279E+03  0.12322994279E+03  0.00000000000E+00 0. -1.
      99925    2    1    2    0    0 -0.60633575432E+02  0.92358279863E+01  0.11363041661E+03  0.29297132488E+03  0.26298021719E+03 0.  0.
         25    1    1    2    0    0  0.60633575432E+02 -0.92358279863E+01  0.11102882205E+03  0.17814779935E+03  0.12509000000E+03 0.  0.
         25    1    3    3    0    0 -0.58754371665E+02 -0.18699754798E+02  0.39729832548E+02  0.14500939526E+03  0.12509000000E+03 0.  0.
         25    1    3    3    0    0 -0.18792037672E+01  0.27935582784E+02  0.73900584058E+02  0.14796192962E+03  0.12509000000E+03 0.  0.
<mgrwt>
<rscale>  2 0.41410319E+03</rscale>
<asrwt>0</asrwt>
<pdfrwt beam="1">  1       21 0.51160173E-01 0.41410319E+03</pdfrwt>
<pdfrwt beam="2">  1       21 0.18122051E-01 0.41410319E+03</pdfrwt>
<totfact> 0.94496809E+04</totfact>
</mgrwt>
</event>
<event>
 6    0  0.1539497E-004  0.4205967E+03  0.7546771E-02  0.1036872E+00
         21   -1    0    0  502  501  0.00000000000E+00  0.00000000000E+00  0.96643503133E+03  0.96643503133E+03  0.00000000000E+00 0.  1.
         21   -1    0    0  501  502 -0.00000000000E+00 -0.00000000000E+00 -0.45761377206E+02  0.45761377206E+02  0.00000000000E+00 0.  1.
      99925    2    1    2    0    0 -0.27180189997E+02 -0.63216670325E+02  0.68010120831E+03  0.73245059549E+03  0.26308004703E+03 0.  0.
         25    1    3    3    0    0  0.11229879863E+02 -0.52936856192E+02  0.41169833213E+03  0.43367204858E+03  0.12509000000E+03 0.  0.
         25    1    1    2    0    0  0.27180189997E+02  0.63216670325E+02  0.24057244581E+03  0.27974581305E+03  0.12509000000E+03 0.  0.
         25    1    3    3    0    0 -0.38410069860E+02 -0.10279814133E+02  0.26840287619E+03  0.29877854690E+03  0.12509000000E+03 0.  0.
<mgrwt>
<rscale>  2 0.42059671E+03</rscale>
<asrwt>0</asrwt>
<pdfrwt beam="1">  1       21 0.14212279E+00 0.42059671E+03</pdfrwt>
<pdfrwt beam="2">  1       21 0.67296149E-02 0.42059671E+03</pdfrwt>
<totfact> 0.51105223E+04</totfact>
</mgrwt>
</event>
<event>
 6    0  0.1539497E-004  0.4129793E+03  0.7546771E-02  0.1039376E+00
         21   -1    0    0  502  501  0.00000000000E+00  0.00000000000E+00  0.11642650790E+04  0.11642650790E+04  0.00000000000E+00 0.  1.
         21   -1    0    0  501  502 -0.00000000000E+00 -0.00000000000E+00 -0.36622230555E+02  0.36622230555E+02  0.00000000000E+00 0.  1.
      99925    2    1    2    0    0  0.45217643802E+02 -0.86825544120E+01  0.88059226897E+03  0.92017122705E+03  0.26296828868E+03 0.  0.
         25    1    1    2    0    0 -0.45217643802E+02  0.86825544120E+01  0.24705057950E+03  0.28071608253E+03  0.12509000000E+03 0.  0.
         25    1    3    3    0    0  0.18874374223E+02  0.19323268361E+02  0.32300020768E+03  0.34742808315E+03  0.12509000000E+03 0.  0.
         25    1    3    3    0    0  0.26343269578E+02 -0.28005822773E+02  0.55759206129E+03  0.57274314389E+03  0.12509000000E+03 0.  0.
<mgrwt>
<rscale>  2 0.41297934E+03</rscale>
<asrwt>0</asrwt>
<pdfrwt beam="1">  1       21 0.17121543E+00 0.41297934E+03</pdfrwt>
<pdfrwt beam="2">  1       21 0.53856229E-02 0.41297934E+03</pdfrwt>
<totfact> 0.45206741E+04</totfact>
</mgrwt>
</event>
<event>
 6    0  0.1539497E-004  0.4765984E+03  0.7546771E-02  0.1020074E+00
         21   -1    0    0  502  501  0.00000000000E+00  0.00000000000E+00  0.12520831329E+03  0.12520831329E+03  0.00000000000E+00 0. -1.
         21   -1    0    0  501  502 -0.00000000000E+00 -0.00000000000E+00 -0.45353615560E+03  0.45353615560E+03  0.00000000000E+00 0. -1.
      99925    2    1    2    0    0 -0.57408902268E+02 -0.22820978603E+02 -0.34511068086E+03  0.43822489411E+03  0.26291271679E+03 0.  0.
         25    1    1    2    0    0  0.57408902268E+02  0.22820978603E+02  0.16782838552E+02  0.14051957477E+03  0.12509000000E+03 0.  0.
         25    1    3    3    0    0 -0.21295110938E+02 -0.16716455258E+02 -0.23502861188E+03  0.26761703632E+03  0.12509000000E+03 0.  0.
         25    1    3    3    0    0 -0.36113791329E+02 -0.61045233452E+01 -0.11008206898E+03  0.17060785779E+03  0.12509000000E+03 0.  0.
<mgrwt>
<rscale>  2 0.47659835E+03</rscale>
<asrwt>0</asrwt>
<pdfrwt beam="1">  1       21 0.18412987E-01 0.47659835E+03</pdfrwt>
<pdfrwt beam="2">  1       21 0.66696494E-01 0.47659835E+03</pdfrwt>
<totfact> 0.50765298E+04</totfact>
</mgrwt>
</event>
<event>
 6    0  0.1539497E-004  0.4105188E+03  0.7546771E-02  0.1040197E+00
         21   -1    0    0  502  501  0.00000000000E+00  0.00000000000E+00  0.17643863399E+03  0.17643863399E+03  0.00000000000E+00 0. -1.
         21   -1    0    0  501  502 -0.00000000000E+00 -0.00000000000E+00 -0.23878795449E+03  0.23878795449E+03  0.00000000000E+00 0. -1.
      99925    2    1    2    0    0 -0.62741657771E+02 -0.73046072310E+01 -0.41085715773E+02  0.27348907794E+03  0.26290372155E+03 0.  0.
         25    1    3    3    0    0 -0.63581541317E+02  0.17504787303E+02 -0.74824579512E+01  0.14160693928E+03  0.12509000000E+03 0.  0.
         25    1    3    3    0    0  0.83988354617E+00 -0.24809394534E+02 -0.33603257822E+02  0.13188213866E+03  0.12509000000E+03 0.  0.
         25    1    1    2    0    0  0.62741657771E+02  0.73046072310E+01 -0.21263604725E+02  0.14173751053E+03  0.12509000000E+03 0.  0.
<mgrwt>
<rscale>  2 0.41051880E+03</rscale>
<asrwt>0</asrwt>
<pdfrwt beam="1">  1       21 0.25946858E-01 0.41051880E+03</pdfrwt>
<pdfrwt beam="2">  1       21 0.35115876E-01 0.41051880E+03</pdfrwt>
<totfact> 0.10377876E+05</totfact>
</mgrwt>
</event>
<event>
 6    0  0.1539497E-004  0.4546333E+03  0.7546771E-02  0.1026349E+00
         21   -1    0    0  502  501  0.00000000000E+00  0.00000000000E+00  0.52395607015E+03  0.52395607015E+03  0.00000000000E+00 0.  1.
         21   -1    0    0  501  502 -0.00000000000E+00 -0.00000000000E+00 -0.98620590620E+02  0.98620590620E+02  0.00000000000E+00 0.  1.
      99925    2    1    2    0    0 -0.81554312663E+02 -0.71903152947E+02  0.31125364185E+03  0.42137193144E+03  0.26240103986E+03 0.  0.
         25    1    3    3    0    0 -0.12353121290E+02 -0.29867406522E+02  0.10263720370E+03  0.16500474315E+03  0.12509000000E+03 0.  0.
         25    1    3    3    0    0 -0.69201191373E+02 -0.42035746425E+02  0.20861643815E+03  0.25636718829E+03  0.12509000000E+03 0.  0.
         25    1    1    2    0    0  0.81554312663E+02  0.71903152947E+02  0.11408183768E+03  0.20120472934E+03  0.12509000000E+03 0.  0.
<mgrwt>
<rscale>  2 0.45463329E+03</rscale>
<asrwt>0</asrwt>
<pdfrwt beam="1">  1       21 0.77052362E-01 0.45463329E+03</pdfrwt>
<pdfrwt beam="2">  1       21 0.14503028E-01 0.45463329E+03</pdfrwt>
<totfact> 0.57475939E+04</totfact>
</mgrwt>
</event>
<event>
 6    0  0.1539497E-004  0.4142004E+03  0.7546771E-02  0.1038971E+00
         21   -1    0    0  502  501  0.00000000000E+00  0.00000000000E+00  0.91296891527E+03  0.91296891527E+03  0.00000000000E+00 0.  1.
         21   -1    0    0  501  502 -0.00000000000E+00 -0.00000000000E+00 -0.46979146590E+02  0.46979146590E+02  0.00000000000E+00 0.  1.
      99925    2    1    2    0    0 -0.14697019646E+02 -0.27417204149E+02  0.70717882398E+03  0.75540923981E+03  0.26376793784E+03 0.  0.
         25    1    3    3    0    0  0.41355679071E+01 -0.53658733515E+02  0.34726181136E+03  0.37300755533E+03  0.12509000000E+03 0.  0.
         25    1    1    2    0    0  0.14697019646E+02  0.27417204149E+02  0.15881094469E+03  0.20453882205E+03  0.12509000000E+03 0.  0.
         25    1    3    3    0    0 -0.18832587553E+02  0.26241529365E+02  0.35991701262E+03  0.38240168448E+03  0.12509000000E+03 0.  0.
<mgrwt>
<rscale>  2 0.41420044E+03</rscale>
<asrwt>0</asrwt>
<pdfrwt beam="1">  1       21 0.13426012E+00 0.41420044E+03</pdfrwt>
<pdfrwt beam="2">  1       21 0.69086986E-02 0.41420044E+03</pdfrwt>
<totfact> 0.56812329E+04</totfact>
</mgrwt>
</event>
<event>
 6    0  0.1539497E-004  0.4017411E+03  0.7546771E-02  0.1043178E+00
         21   -1    0    0  502  501  0.00000000000E+00  0.00000000000E+00  0.31907359894E+03  0.31907359894E+03  0.00000000000E+00 0. -1.
         21   -1    0    0  501  502 -0.00000000000E+00 -0.00000000000E+00 -0.12645667434E+03  0.12645667434E+03  0.00000000000E+00 0. -1.
      99925    2    1    2    0    0  0.33425078848E+02 -0.16996062796E+02  0.92384539876E+02  0.28090906840E+03  0.26261930518E+03 0.  0.
         25    1    3    3    0    0  0.35856992188E+02  0.10062148033E+02  0.78123431774E+02  0.15211097726E+03  0.12509000000E+03 0.  0.
         25    1    1    2    0    0 -0.33425078848E+02  0.16996062796E+02  0.10023238473E+03  0.16462120488E+03  0.12509000000E+03 0.  0.
         25    1    3    3    0    0 -0.24319133404E+01 -0.27058210829E+02  0.14261108102E+02  0.12879809114E+03  0.12509000000E+03 0.  0.
<mgrwt>
<rscale>  2 0.40174114E+03</rscale>
<asrwt>0</asrwt>
<pdfrwt beam="1">  1       21 0.46922588E-01 0.40174114E+03</pdfrwt>
<pdfrwt beam="2">  1       21 0.18596570E-01 0.40174114E+03</pdfrwt>
<totfact> 0.10835162E+05</totfact>
</mgrwt>
</event>
<event>
 6    0  0.1539497E-004  0.4543172E+03  0.7546771E-02  0.1026442E+00
         21   -1    0    0  502  501  0.00000000000E+00  0.00000000000E+00  0.63593416048E+02  0.63593416048E+02  0.00000000000E+00 0. -1.
         21   -1    0    0  501  502 -0.00000000000E+00 -0.00000000000E+00 -0.81142102720E+03  0.81142102720E+03  0.00000000000E+00 0. -1.
      99925    2    1    2    0    0 -0.14482211002E-01 -0.23473825065E+02 -0.68283794400E+03  0.73210823061E+03  0.26299008136E+03 0.  0.
         25    1    3    3    0    0 -0.40410566489E+02 -0.15066385295E+02 -0.34188060961E+03  0.36659223829E+03  0.12509000000E+03 0.  0.
         25    1    1    2    0    0  0.14482211002E-01  0.23473825065E+02 -0.64989667155E+02  0.14290621264E+03  0.12509000000E+03 0.  0.
         25    1    3    3    0    0  0.40396084278E+02 -0.84074397707E+01 -0.34095733439E+03  0.36551599232E+03  0.12509000000E+03 0.  0.
<mgrwt>
<rscale>  2 0.45431722E+03</rscale>
<asrwt>0</asrwt>
<pdfrwt beam="1">  1       21 0.93519735E-02 0.45431722E+03</pdfrwt>
<pdfrwt beam="2">  1       21 0.11932661E+00 0.45431722E+03</pdfrwt>
<totfact> 0.44569517E+04</totfact>
</mgrwt>
</event>
<event>
 6    0  0.1539497E-004  0.4400612E+03  0.7546771E-02  0.1030728E+00
         21   -1    0    0  502  501  0.00000000000E+00  0.00000000000E+00  0.10904148068E+03  0.10904148068E+03  0.00000000000E+00 0. -1.
         21   -1    0    0  501  502 -0.00000000000E+00 -0.00000000000E+00 -0.44399125052E+03  0.44399125052E+03  0.00000000000E+00 0. -1.
      99925    2    1    2    0    0  0.28984525895E+02  0.74201253350E+02 -0.28731240112E+03  0.39726766535E+03  0.26254000335E+03 0.  0.
         25    1    1    2    0    0 -0.28984525895E+02 -0.74201253350E+02 -0.47637368731E+02  0.15576506585E+03  0.12509000000E+03 0.  0.
         25    1    3    3    0    0 -0.20148083858E+02  0.26005372687E+02 -0.16199450896E+03  0.20729677693E+03  0.12509000000E+03 0.  0.
         25    1    3    3    0    0  0.49132609753E+02  0.48195880663E+02 -0.12531789216E+03  0.18997088843E+03  0.12509000000E+03 0.  0.
<mgrwt>
<rscale>  2 0.44006119E+03</rscale>
<asrwt>0</asrwt>
<pdfrwt beam="1">  1       21 0.16035512E-01 0.44006119E+03</pdfrwt>
<pdfrwt beam="2">  1       21 0.65292829E-01 0.44006119E+03</pdfrwt>
<totfact> 0.69526194E+04</totfact>
</mgrwt>
</event>
<event>
 6    0  0.1539497E-004  0.4179618E+03  0.7546771E-02  0.1037732E+00
         21   -1    0    0  502  501  0.00000000000E+00  0.00000000000E+00  0.44043391085E+03  0.44043391085E+03  0.00000000000E+00 0. -1.
         21   -1    0    0  501  502 -0.00000000000E+00 -0.00000000000E+00 -0.99159055314E+02  0.99159055314E+02  0.00000000000E+00 0. -1.
      99925    2    1    2    0    0 -0.50441771809E+02  0.51900236576E+02  0.23740333234E+03  0.36161878733E+03  0.26300151757E+03 0.  0.
         25    1    3    3    0    0 -0.85237499219E+01  0.56259286510E+02  0.92765443867E+02  0.16580318847E+03  0.12509000000E+03 0.  0.
         25    1    1    2    0    0  0.50441771809E+02 -0.51900236576E+02  0.10387152320E+03  0.17797417883E+03  0.12509000000E+03 0.  0.
         25    1    3    3    0    0 -0.41918021887E+02 -0.43590499337E+01  0.14463788847E+03  0.19581559886E+03  0.12509000000E+03 0.  0.
<mgrwt>
<rscale>  2 0.41796177E+03</rscale>
<asrwt>0</asrwt>
<pdfrwt beam="1">  1       21 0.64769692E-01 0.41796177E+03</pdfrwt>
<pdfrwt beam="2">  1       21 0.14582214E-01 0.41796177E+03</pdfrwt>
<totfact> 0.84819375E+04</totfact>
</mgrwt>
</event>
<event>
 6    0  0.1539497E-004  0.4425894E+03  0.7546771E-02  0.1029955E+00
         21   -1    0    0  502  501  0.00000000000E+00  0.00000000000E+00  0.19011865928E+03  0.19011865928E+03  0.00000000000E+00 0. -1.
         21   -1    0    0  501  502 -0.00000000000E+00 -0.00000000000E+00 -0.25758310076E+03  0.25758310076E+03  0.00000000000E+00 0. -1.
      99925    2    1    2    0    0 -0.50281882589E+02 -0.15268911883E+02  0.44215366925E+02  0.27197101403E+03  0.26315741755E+03 0.  0.
         25    1    3    3    0    0 -0.47884084657E+02 -0.31745342765E+02  0.47831986329E+02  0.14572597355E+03  0.12509000000E+03 0.  0.
         25    1    1    2    0    0  0.50281882589E+02  0.15268911883E+02 -0.11167980841E+03  0.17573074601E+03  0.12509000000E+03 0.  0.
         25    1    3    3    0    0 -0.23977979319E+01  0.16476430882E+02 -0.36166194042E+01  0.12624504048E+03  0.12509000000E+03 0.  0.
<mgrwt>
<rscale>  2 0.44258944E+03</rscale>
<asrwt>0</asrwt>
<pdfrwt beam="1">  1       21 0.27958626E-01 0.44258944E+03</pdfrwt>
<pdfrwt beam="2">  1       21 0.37879868E-01 0.44258944E+03</pdfrwt>
<totfact> 0.76369192E+04</totfact>
</mgrwt>
</event>
<event>
 6    0  0.1539497E-004  0.4256361E+03  0.7546771E-02  0.1035247E+00
         21   -1    0    0  502  501  0.00000000000E+00  0.00000000000E+00  0.27206276409E+03  0.27206276409E+03  0.00000000000E+00 0.  1.
         21   -1    0    0  501  502 -0.00000000000E+00 -0.00000000000E+00 -0.16647450211E+03  0.16647450211E+03  0.00000000000E+00 0.  1.
      99925    2    1    2    0    0  0.73459755456E+02  0.12334580416E+02  0.10538489825E+03  0.29294871238E+03  0.26299143286E+03 0.  0.
         25    1    3    3    0    0  0.29610905824E+02  0.13359880574E+02  0.99705733610E+01  0.12962334892E+03  0.12509000000E+03 0.  0.
         25    1    3    3    0    0  0.43848849631E+02 -0.10253001582E+01  0.95414324890E+02  0.16332536346E+03  0.12509000000E+03 0.  0.
         25    1    1    2    0    0 -0.73459755456E+02 -0.12334580416E+02  0.20336372305E+00  0.14558855382E+03  0.12509000000E+03 0.  0.
<mgrwt>
<rscale>  2 0.42563606E+03</rscale>
<asrwt>0</asrwt>
<pdfrwt beam="1">  1       21 0.40009230E-01 0.42563606E+03</pdfrwt>
<pdfrwt beam="2">  1       21 0.24481544E-01 0.42563606E+03</pdfrwt>
<totfact> 0.88796978E+04</totfact>
</mgrwt>
</event>
<event>
 6    0  0.1539497E-004  0.4455581E+03  0.7546771E-02  0.1029055E+00
         21   -1    0    0  502  501  0.00000000000E+00  0.00000000000E+00  0.86980307379E+02  0.86980307379E+02  0.00000000000E+00 0. -1.
         21   -1    0    0  501  502 -0.00000000000E+00 -0.00000000000E+00 -0.57059484267E+03  0.57059484267E+03  0.00000000000E+00 0. -1.
      99925    2    1    2    0    0 -0.89140716808E+02 -0.19359153230E+02 -0.38100053220E+03  0.47183881559E+03  0.26296314980E+03 0.  0.
         25    1    3    3    0    0 -0.53301119544E+02 -0.49422743257E+02 -0.19153099201E+03  0.24003176018E+03  0.12509000000E+03 0.  0.
         25    1    1    2    0    0  0.89140716808E+02  0.19359153230E+02 -0.10261400309E+03  0.18573633445E+03  0.12509000000E+03 0.  0.
         25    1    3    3    0    0 -0.35839597264E+02  0.30063590026E+02 -0.18946954019E+03  0.23180705541E+03  0.12509000000E+03 0.  0.
<mgrwt>
<rscale>  2 0.44555814E+03</rscale>
<asrwt>0</asrwt>
<pdfrwt beam="1">  1       21 0.12791222E-01 0.44555814E+03</pdfrwt>
<pdfrwt beam="2">  1       21 0.83911007E-01 0.44555814E+03</pdfrwt>
<totfact> 0.59579968E+04</totfact>
</mgrwt>
</event>
<event>
 6    0  0.1539497E-004  0.4200645E+03  0.7546771E-02  0.1037045E+00
         21   -1    0    0  502  501  0.00000000000E+00  0.00000000000E+00  0.49440198488E+02  0.49440198488E+02  0.00000000000E+00 0.  1.
         21   -1    0    0  501  502 -0.00000000000E+00 -0.00000000000E+00 -0.89226083842E+03  0.89226083842E+03  0.00000000000E+00 0.  1.
      99925    2    1    2    0    0  0.16692036244E+02 -0.72645931988E+02 -0.51732428209E+03  0.58511802753E+03  0.26302592609E+03 0.  0.
         25    1    3    3    0    0  0.62049783898E+00  0.17209170396E+01 -0.20459035477E+03  0.23980839839E+03  0.12509000000E+03 0.  0.
         25    1    3    3    0    0  0.16071538405E+02 -0.74366849028E+02 -0.31273392733E+03  0.34530962915E+03  0.12509000000E+03 0.  0.
         25    1    1    2    0    0 -0.16692036244E+02  0.72645931988E+02 -0.32549635784E+03  0.35658300938E+03  0.12509000000E+03 0.  0.
<mgrwt>
<rscale>  2 0.42006453E+03</rscale>
<asrwt>0</asrwt>
<pdfrwt beam="1">  1       21 0.72706167E-02 0.42006453E+03</pdfrwt>
<pdfrwt beam="2">  1       21 0.13121484E+00 0.42006453E+03</pdfrwt>
<totfact> 0.55049058E+04</totfact>
</mgrwt>
</event>
<event>
 6    0  0.1539497E-004  0.4293913E+03  0.7546771E-02  0.1034052E+00
         21   -1    0    0  502  501  0.00000000000E+00  0.00000000000E+00  0.52501653822E+03  0.52501653822E+03  0.00000000000E+00 0.  1.
         21   -1    0    0  501  502 -0.00000000000E+00 -0.00000000000E+00 -0.87795770046E+02  0.87795770046E+02  0.00000000000E+00 0.  1.
      99925    2    1    2    0    0  0.14062383922E+02 -0.81888506644E+02  0.24486594685E+03  0.36878082762E+03  0.26293818423E+03 0.  0.
         25    1    1    2    0    0 -0.14062383922E+02  0.81888506644E+02  0.19235482133E+03  0.24403148065E+03  0.12509000000E+03 0.  0.
         25    1    3    3    0    0  0.12744102595E+02 -0.34310901852E+01  0.89085107422E+02  0.15413581347E+03  0.12509000000E+03 0.  0.
         25    1    3    3    0    0  0.13182813275E+01 -0.78457416459E+02  0.15578083943E+03  0.21464501414E+03  0.12509000000E+03 0.  0.
<mgrwt>
<rscale>  2 0.42939134E+03</rscale>
<asrwt>0</asrwt>
<pdfrwt beam="1">  1       21 0.77208313E-01 0.42939134E+03</pdfrwt>
<pdfrwt beam="2">  1       21 0.12911143E-01 0.42939134E+03</pdfrwt>
<totfact> 0.71248570E+04</totfact>
</mgrwt>
</event>
<event>
 6    0  0.1539497E-004  0.4544588E+03  0.7546771E-02  0.1026401E+00
         21   -1    0    0  502  501  0.00000000000E+00  0.00000000000E+00  0.14150111106E+04  0.14150111106E+04  0.00000000000E+00 0. -1.
         21   -1    0    0  501  502 -0.00000000000E+00 -0.00000000000E+00 -0.36489613917E+02  0.36489613917E+02  0.00000000000E+00 0. -1.
      99925    2    1    2    0    0  0.62115312205E+02  0.94004434398E+02  0.87090740711E+03  0.91669728611E+03  0.26298109610E+03 0.  0.
         25    1    3    3    0    0  0.68662686561E+02  0.33432354164E+02  0.47107459223E+03  0.49334680132E+03  0.12509000000E+03 0.  0.
         25    1    3    3    0    0 -0.65473743566E+01  0.60572080234E+02  0.39983281488E+03  0.42335048479E+03  0.12509000000E+03 0.  0.
         25    1    1    2    0    0 -0.62115312205E+02 -0.94004434398E+02  0.50761408954E+03  0.53480343838E+03  0.12509000000E+03 0.  0.
<mgrwt>
<rscale>  2 0.45445884E+03</rscale>
<asrwt>0</asrwt>
<pdfrwt beam="1">  1       21 0.20808983E+00 0.45445884E+03</pdfrwt>
<pdfrwt beam="2">  1       21 0.53661206E-02 0.45445884E+03</pdfrwt>
<totfact> 0.25096661E+04</totfact>
</mgrwt>
</event>
<event>
 6    0  0.1539497E-004  0.4539200E+03  0.7546771E-02  0.1026559E+00
         21   -1    0    0  502  501  0.00000000000E+00  0.00000000000E+00  0.96816492728E+03  0.96816492728E+03  0.00000000000E+00 0.  1.
         21   -1    0    0  501  502 -0.00000000000E+00 -0.00000000000E+00 -0.53204613853E+02  0.53204613853E+02  0.00000000000E+00 0.  1.
      99925    2    1    2    0    0  0.41738773065E+02 -0.51812477086E+02  0.77956651462E+03  0.82539595410E+03  0.26292179897E+03 0.  0.
         25    1    3    3    0    0  0.46973371222E+02 -0.19279975554E+02  0.30554696471E+03  0.33404291761E+03  0.12509000000E+03 0.  0.
         25    1    1    2    0    0 -0.41738773065E+02  0.51812477086E+02  0.13539379881E+03  0.19597358703E+03  0.12509000000E+03 0.  0.
         25    1    3    3    0    0 -0.52345981569E+01 -0.32532501532E+02  0.47401954991E+03  0.49135303649E+03  0.12509000000E+03 0.  0.
<mgrwt>
<rscale>  2 0.45392000E+03</rscale>
<asrwt>0</asrwt>
<pdfrwt beam="1">  1       21 0.14237718E+00 0.45392000E+03</pdfrwt>
<pdfrwt beam="2">  1       21 0.78242085E-02 0.45392000E+03</pdfrwt>
<totfact> 0.38670826E+04</totfact>
</mgrwt>
</event>
<event>
 6    0  0.1539497E-004  0.4501399E+03  0.7546771E-02  0.1027680E+00
         21   -1    0    0  502  501  0.00000000000E+00  0.00000000000E+00  0.17141512497E+04  0.17141512497E+04  0.00000000000E+00 0. -1.
         21   -1    0    0  501  502 -0.00000000000E+00 -0.00000000000E+00 -0.29551929725E+02  0.29551929725E+02  0.00000000000E+00 0. -1.
      99925    2    1    2    0    0 -0.48491050110E+02  0.56364945665E+02  0.13711676413E+04  0.13981379695E+04  0.26298420499E+03 0.  0.
         25    1    3    3    0    0 -0.10853084619E+02  0.48803428369E+02  0.86010945279E+03  0.87059482134E+03  0.12509000000E+03 0.  0.
         25    1    3    3    0    0 -0.37637965491E+02  0.75615172956E+01  0.51105818851E+03  0.52754314812E+03  0.12509000000E+03 0.  0.
         25    1    1    2    0    0  0.48491050110E+02 -0.56364945665E+02  0.31343167872E+03  0.34556521001E+03  0.12509000000E+03 0.  0.
<mgrwt>
<rscale>  2 0.45013988E+03</rscale>
<asrwt>0</asrwt>
<pdfrwt beam="1">  1       21 0.25208100E+00 0.45013988E+03</pdfrwt>
<pdfrwt beam="2">  1       21 0.43458732E-02 0.45013988E+03</pdfrwt>
<totfact> 0.19076418E+04</totfact>
</mgrwt>
</event>
<event>
 6    0  0.1539497E-004  0.4777373E+03  0.7546771E-02  0.1019759E+00
         21   -1    0    0  502  501  0.00000000000E+00  0.00000000000E+00  0.80426340582E+02  0.80426340582E+02  0.00000000000E+00 0.  1.
         21   -1    0    0  501  502 -0.00000000000E+00 -0.00000000000E+00 -0.70944704662E+03  0.70944704662E+03  0.00000000000E+00 0.  1.
      99925    2    1    2    0    0  0.10416604007E+03  0.83071945692E+02 -0.37819966732E+03  0.47953451817E+03  0.26299591954E+03 0.  0.
         25    1    3    3    0    0  0.28322947457E+02  0.59892871345E+01 -0.14522744615E+03  0.19384679551E+03  0.12509000000E+03 0.  0.
         25    1    1    2    0    0 -0.10416604007E+03 -0.83071945692E+02 -0.25082103872E+03  0.31033886903E+03  0.12509000000E+03 0.  0.
         25    1    3    3    0    0  0.75843092610E+02  0.77082658558E+02 -0.23297222117E+03  0.28568772267E+03  0.12509000000E+03 0.  0.
<mgrwt>
<rscale>  2 0.47773729E+03</rscale>
<asrwt>0</asrwt>
<pdfrwt beam="1">  1       21 0.11827403E-01 0.47773729E+03</pdfrwt>
<pdfrwt beam="2">  1       21 0.10433045E+00 0.47773729E+03</pdfrwt>
<totfact> 0.40527748E+04</totfact>
</mgrwt>
</event>
<event>
 6    0  0.1539497E-004  0.3922044E+03  0.7546771E-02  0.1046513E+00
         21   -1    0    0  502  501  0.00000000000E+00  0.00000000000E+00  0.30044579553E+04  0.30044579553E+04  0.00000000000E+00 0. -1.
         21   -1    0    0  501  502 -0.00000000000E+00 -0.00000000000E+00 -0.12799671067E+02  0.12799671067E+02  0.00000000000E+00 0. -1.
      99925    2    1    2    0    0  0.17933086433E+02 -0.18774903173E+02  0.20505472623E+04  0.20675147368E+04  0.26305706487E+03 0.  0.
         25    1    3    3    0    0  0.34364334346E+02 -0.40745511486E+02  0.11050604415E+04  0.11133944457E+04  0.12509000000E+03 0.  0.
         25    1    1    2    0    0 -0.17933086433E+02  0.18774903173E+02  0.94111102193E+03  0.94974288956E+03  0.12509000000E+03 0.  0.
         25    1    3    3    0    0 -0.16431247912E+02  0.21970608313E+02  0.94548682073E+03  0.95412029106E+03  0.12509000000E+03 0.  0.
<mgrwt>
<rscale>  2 0.39220440E+03</rscale>
<asrwt>0</asrwt>
<pdfrwt beam="1">  1       21 0.44183156E+00 0.39220440E+03</pdfrwt>
<pdfrwt beam="2">  1       21 0.18823066E-02 0.39220440E+03</pdfrwt>
<totfact> 0.53154208E+03</totfact>
</mgrwt>
</event>
<event>
 5    0  0.1539497E-004  0.5095037E+03  0.7546771E-02  0.1011328E+00
         21   -1    0    0  502  501  0.00000000000E+00  0.00000000000E+00  0.52153600986E+03  0.52153600986E+03  0.00000000000E+00 0. -1.
         21   -1    0    0  501  502 -0.00000000000E+00 -0.00000000000E+00 -0.12443724376E+03  0.12443724376E+03  0.00000000000E+00 0. -1.
         25    1    1    2    0    0 -0.12246680771E+03  0.96914780634E+02  0.11256875178E+03  0.22958620532E+03  0.12509000000E+03 0.  0.
         25    1    1    2    0    0  0.78665379540E+02 -0.64863733554E+02  0.11180355860E+03  0.19632394068E+03  0.12509000000E+03 0.  0.
         25    1    1    2    0    0  0.43801428173E+02 -0.32051047080E+02  0.17272645572E+03  0.22006310761E+03  0.12509000000E+03 0.  0.
<mgrwt>
<rscale>  2 0.50950369E+03</rscale>
<asrwt>0</asrwt>
<pdfrwt beam="1">  1       21 0.76696471E-01 0.50950369E+03</pdfrwt>
<pdfrwt beam="2">  1       21 0.18299595E-01 0.50950369E+03</pdfrwt>
<totfact> 0.37171538E+04</totfact>
</mgrwt>
</event>
<event>
 6    0  0.1539497E-004  0.4078989E+03  0.7546771E-02  0.1041078E+00
         21   -1    0    0  502  501  0.00000000000E+00  0.00000000000E+00  0.12084813593E+03  0.12084813593E+03  0.00000000000E+00 0. -1.
         21   -1    0    0  501  502 -0.00000000000E+00 -0.00000000000E+00 -0.34419537652E+03  0.34419537652E+03  0.00000000000E+00 0. -1.
      99925    2    1    2    0    0 -0.41140747486E+02  0.19178264313E+02 -0.10438915337E+03  0.28655289214E+03  0.26297356849E+03 0.  0.
         25    1    3    3    0    0 -0.19763972935E+02  0.41626700382E+01 -0.88887697074E+01  0.12702149729E+03  0.12509000000E+03 0.  0.
         25    1    3    3    0    0 -0.21376774551E+02  0.15015594274E+02 -0.95500383663E+02  0.15953139485E+03  0.12509000000E+03 0.  0.
         25    1    1    2    0    0  0.41140747486E+02 -0.19178264313E+02 -0.11895808721E+03  0.17849062031E+03  0.12509000000E+03 0.  0.
<mgrwt>
<rscale>  2 0.40789886E+03</rscale>
<asrwt>0</asrwt>
<pdfrwt beam="1">  1       21 0.17771785E-01 0.40789886E+03</pdfrwt>
<pdfrwt beam="2">  1       21 0.50616967E-01 0.40789886E+03</pdfrwt>
<totfact> 0.10040798E+05</totfact>
</mgrwt>
</event>
<event>
 6    0  0.1539497E-004  0.4052981E+03  0.7546771E-02  0.1041960E+00
         21   -1    0    0  502  501  0.00000000000E+00  0.00000000000E+00  0.99404327747E+03  0.99404327747E+03  0.00000000000E+00 0.  1.
         21   -1    0    0  501  502 -0.00000000000E+00 -0.00000000000E+00 -0.41312726529E+02  0.41312726529E+02  0.00000000000E+00 0.  1.
      99925    2    1    2    0    0  0.44939866896E+02 -0.29401489465E+02  0.60295393607E+03  0.66002251544E+03  0.26304416483E+03 0.  0.
         25    1    3    3    0    0  0.25122278269E+00  0.18028746150E+02  0.31405888164E+03  0.33853447097E+03  0.12509000000E+03 0.  0.
         25    1    3    3    0    0  0.44688644114E+02 -0.47430235615E+02  0.28889505443E+03  0.32148804447E+03  0.12509000000E+03 0.  0.
         25    1    1    2    0    0 -0.44939866896E+02  0.29401489465E+02  0.34977661487E+03  0.37533348855E+03  0.12509000000E+03 0.  0.
<mgrwt>
<rscale>  2 0.40529810E+03</rscale>
<asrwt>0</asrwt>
<pdfrwt beam="1">  1       21 0.14618282E+00 0.40529810E+03</pdfrwt>
<pdfrwt beam="2">  1       21 0.60754016E-02 0.40529810E+03</pdfrwt>
<totfact> 0.56891783E+04</totfact>
</mgrwt>
</event>
<event>
 6    0  0.1539497E-004  0.4185337E+03  0.7546771E-02  0.1037545E+00
         21   -1    0    0  502  501  0.00000000000E+00  0.00000000000E+00  0.72979223644E+02  0.72979223644E+02  0.00000000000E+00 0. -1.
         21   -1    0    0  501  502 -0.00000000000E+00 -0.00000000000E+00 -0.60006958350E+03  0.60006958350E+03  0.00000000000E+00 0. -1.
      99925    2    1    2    0    0  0.64221076913E+02 -0.25998185894E+02 -0.30245913095E+03  0.40676521867E+03  0.26301362101E+03 0.  0.
         25    1    3    3    0    0  0.51606760616E+02  0.90031591935E+01 -0.19600725750E+03  0.23834988506E+03  0.12509000000E+03 0.  0.
         25    1    3    3    0    0  0.12614316297E+02 -0.35001345088E+02 -0.10645187345E+03  0.16841533361E+03  0.12509000000E+03 0.  0.
         25    1    1    2    0    0 -0.64221076913E+02  0.25998185894E+02 -0.22463122890E+03  0.26628358847E+03  0.12509000000E+03 0.  0.
<mgrwt>
<rscale>  2 0.41853369E+03</rscale>
<asrwt>0</asrwt>
<pdfrwt beam="1">  1       21 0.10732239E-01 0.41853369E+03</pdfrwt>
<pdfrwt beam="2">  1       21 0.88245526E-01 0.41853369E+03</pdfrwt>
<totfact> 0.73275136E+04</totfact>
</mgrwt>
</event>
<event>
 6    0  0.1539497E-004  0.4769224E+03  0.7546771E-02  0.1019984E+00
         21   -1    0    0  502  501  0.00000000000E+00  0.00000000000E+00  0.68948589496E+02  0.68948589496E+02  0.00000000000E+00 0.  1.
         21   -1    0    0  501  502 -0.00000000000E+00 -0.00000000000E+00 -0.82472674122E+03  0.82472674122E+03  0.00000000000E+00 0.  1.
      99925    2    1    2    0    0  0.60354049697E+02 -0.29100676183E+02 -0.25210443371E+03  0.37039320510E+03  0.26295440711E+03 0.  0.
         25    1    3    3    0    0  0.67001056204E+02 -0.30920748506E+02 -0.14984497640E+03  0.20867740480E+03  0.12509000000E+03 0.  0.
         25    1    3    3    0    0 -0.66470065069E+01  0.18200723239E+01 -0.10225945731E+03  0.16171580030E+03  0.12509000000E+03 0.  0.
         25    1    1    2    0    0 -0.60354049697E+02  0.29100676183E+02 -0.50367371801E+03  0.52328212561E+03  0.12509000000E+03 0.  0.
<mgrwt>
<rscale>  2 0.47692241E+03</rscale>
<asrwt>0</asrwt>
<pdfrwt beam="1">  1       21 0.10139499E-01 0.47692241E+03</pdfrwt>
<pdfrwt beam="2">  1       21 0.12128334E+00 0.47692241E+03</pdfrwt>
<totfact> 0.36776796E+04</totfact>
</mgrwt>
</event>
<event>
 6    0  0.1539497E-004  0.4432348E+03  0.7546771E-02  0.1029759E+00
         21   -1    0    0  502  501  0.00000000000E+00  0.00000000000E+00  0.13068030455E+04  0.13068030455E+04  0.00000000000E+00 0.  1.
         21   -1    0    0  501  502 -0.00000000000E+00 -0.00000000000E+00 -0.37583522814E+02  0.37583522814E+02  0.00000000000E+00 0.  1.
      99925    2    1    2    0    0 -0.53401395463E+02 -0.85001605981E+02  0.85715668758E+03  0.90220982737E+03  0.26303612581E+03 0.  0.
         25    1    1    2    0    0  0.53401395463E+02  0.85001605981E+02  0.41206283512E+03  0.44217674095E+03  0.12509000000E+03 0.  0.
         25    1    3    3    0    0 -0.54648437238E+02 -0.70207570137E+02  0.52452239021E+03  0.54652246114E+03  0.12509000000E+03 0.  0.
         25    1    3    3    0    0  0.12470417750E+01 -0.14794035844E+02  0.33263429737E+03  0.35568736623E+03  0.12509000000E+03 0.  0.
<mgrwt>
<rscale>  2 0.44323476E+03</rscale>
<asrwt>0</asrwt>
<pdfrwt beam="1">  1       21 0.19217689E+00 0.44323476E+03</pdfrwt>
<pdfrwt beam="2">  1       21 0.55269895E-02 0.44323476E+03</pdfrwt>
<totfact> 0.30552610E+04</totfact>
</mgrwt>
</event>
<event>
 6    0  0.1539497E-004  0.4108415E+03  0.7546771E-02  0.1040089E+00
         21   -1    0    0  502  501  0.00000000000E+00  0.00000000000E+00  0.16670299533E+03  0.16670299533E+03  0.00000000000E+00 0. -1.
         21   -1    0    0  501  502 -0.00000000000E+00 -0.00000000000E+00 -0.25313093630E+03  0.25313093630E+03  0.00000000000E+00 0. -1.
      99925    2    1    2    0    0  0.49226025084E+02  0.20252943899E+02 -0.88483540359E+02  0.28387394902E+03  0.26442711422E+03 0.  0.
         25    1    1    2    0    0 -0.49226025084E+02 -0.20252943899E+02  0.20555993856E+01  0.13595998261E+03  0.12509000000E+03 0.  0.
         25    1    3    3    0    0  0.38202584433E+02  0.16220476629E+02 -0.87561517259E+02  0.15823106119E+03  0.12509000000E+03 0.  0.
         25    1    3    3    0    0  0.11023440651E+02  0.40324672700E+01 -0.92202309966E+00  0.12564288783E+03  0.12509000000E+03 0.  0.
<mgrwt>
<rscale>  2 0.41084150E+03</rscale>
<asrwt>0</asrwt>
<pdfrwt beam="1">  1       21 0.24515147E-01 0.41084150E+03</pdfrwt>
<pdfrwt beam="2">  1       21 0.37225137E-01 0.41084150E+03</pdfrwt>
<totfact> 0.10294915E+05</totfact>
</mgrwt>
</event>
<event>
 6    0  0.1539497E-004  0.4145340E+03  0.7546771E-02  0.1038860E+00
         21   -1    0    0  502  501  0.00000000000E+00  0.00000000000E+00  0.76267512400E+03  0.76267512400E+03  0.00000000000E+00 0. -1.
         21   -1    0    0  501  502 -0.00000000000E+00 -0.00000000000E+00 -0.56327527003E+02  0.56327527003E+02  0.00000000000E+00 0. -1.
      99925    2    1    2    0    0 -0.49474903068E+02 -0.45652551135E+02  0.44504454612E+03  0.52158255424E+03  0.26353707785E+03 0.  0.
         25    1    3    3    0    0 -0.46368674593E+02 -0.58349182977E+02  0.25624827863E+03  0.29472931571E+03  0.12509000000E+03 0.  0.
         25    1    3    3    0    0 -0.31062284756E+01  0.12696631841E+02  0.18879626748E+03  0.22685323853E+03  0.12509000000E+03 0.  0.
         25    1    1    2    0    0  0.49474903068E+02  0.45652551135E+02  0.26130305088E+03  0.29742009676E+03  0.12509000000E+03 0.  0.
<mgrwt>
<rscale>  2 0.41453397E+03</rscale>
<asrwt>0</asrwt>
<pdfrwt beam="1">  1       21 0.11215810E+00 0.41453397E+03</pdfrwt>
<pdfrwt beam="2">  1       21 0.82834603E-02 0.41453397E+03</pdfrwt>
<totfact> 0.65230954E+04</totfact>
</mgrwt>
</event>
<event>
 6    0  0.1539497E-004  0.4624246E+03  0.7546771E-02  0.1024080E+00
         21   -1    0    0  502  501  0.00000000000E+00  0.00000000000E+00  0.81716377775E+02  0.81716377775E+02  0.00000000000E+00 0.  1.
         21   -1    0    0  501  502 -0.00000000000E+00 -0.00000000000E+00 -0.65420330036E+03  0.65420330036E+03  0.00000000000E+00 0.  1.
      99925    2    1    2    0    0 -0.35675635421E+02  0.49112483969E+02 -0.19322065198E+03  0.33197017738E+03  0.26303078008E+03 0.  0.
         25    1    3    3    0    0 -0.28935741499E+01  0.36919850064E+02 -0.14067832438E+03  0.19185762208E+03  0.12509000000E+03 0.  0.
         25    1    3    3    0    0 -0.32782061271E+02  0.12192633905E+02 -0.52542327607E+02  0.14011255530E+03  0.12509000000E+03 0.  0.
         25    1    1    2    0    0  0.35675635421E+02 -0.49112483969E+02 -0.37926627060E+03  0.40394950075E+03  0.12509000000E+03 0.  0.
<mgrwt>
<rscale>  2 0.46242458E+03</rscale>
<asrwt>0</asrwt>
<pdfrwt beam="1">  1       21 0.12017114E-01 0.46242458E+03</pdfrwt>
<pdfrwt beam="2">  1       21 0.96206369E-01 0.46242458E+03</pdfrwt>
<totfact> 0.48124370E+04</totfact>
</mgrwt>
</event>
<event>
 6    0  0.1539497E-004  0.4093860E+03  0.7546771E-02  0.1040577E+00
         21   -1    0    0  502  501  0.00000000000E+00  0.00000000000E+00  0.41019714373E+03  0.41019714373E+03  0.00000000000E+00 0.  1.
         21   -1    0    0  501  502 -0.00000000000E+00 -0.00000000000E+00 -0.10214410564E+03  0.10214410564E+03  0.00000000000E+00 0.  1.
      99925    2    1    2    0    0 -0.54701634238E+02 -0.11238374569E+02  0.23430006082E+03  0.35675982500E+03  0.26317766695E+03 0.  0.
         25    1    1    2    0    0  0.54701634238E+02  0.11238374569E+02  0.73752977265E+02  0.15558142436E+03  0.12509000000E+03 0.  0.
         25    1    3    3    0    0 -0.32401911267E+02 -0.30693038988E+02  0.76642894943E+02  0.15334140974E+03  0.12509000000E+03 0.  0.
         25    1    3    3    0    0 -0.22299722971E+02  0.19454664419E+02  0.15765716588E+03  0.20341841526E+03  0.12509000000E+03 0.  0.
<mgrwt>
<rscale>  2 0.40938598E+03</rscale>
<asrwt>0</asrwt>
<pdfrwt beam="1">  1       21 0.60323109E-01 0.40938598E+03</pdfrwt>
<pdfrwt beam="2">  1       21 0.15021192E-01 0.40938598E+03</pdfrwt>
<totfact> 0.94078234E+04</totfact>
</mgrwt>
</event>
<event>
 6    0  0.1539497E-004  0.4611401E+03  0.7546771E-02  0.1024451E+00
         21   -1    0    0  502  501  0.00000000000E+00  0.00000000000E+00  0.12571621147E+04  0.12571621147E+04  0.00000000000E+00 0.  1.
         21   -1    0    0  501  502 -0.00000000000E+00 -0.00000000000E+00 -0.42287736474E+02  0.42287736474E+02  0.00000000000E+00 0.  1.
      99925    2    1    2    0    0 -0.83333575201E+02  0.33057736459E+02  0.54038780086E+03  0.60762837865E+03  0.26297523178E+03 0.  0.
         25    1    3    3    0    0 -0.19579822379E+02 -0.17856122820E+02  0.26965118842E+03  0.29843170422E+03  0.12509000000E+03 0.  0.
         25    1    1    2    0    0  0.83333575201E+02 -0.33057736459E+02  0.67448657741E+03  0.69182147257E+03  0.12509000000E+03 0.  0.
         25    1    3    3    0    0 -0.63753752822E+02  0.50913859279E+02  0.27073661243E+03  0.30919667443E+03  0.12509000000E+03 0.  0.
<mgrwt>
<rscale>  2 0.46114007E+03</rscale>
<asrwt>0</asrwt>
<pdfrwt beam="1">  1       21 0.18487676E+00 0.46114007E+03</pdfrwt>
<pdfrwt beam="2">  1       21 0.62187856E-02 0.46114007E+03</pdfrwt>
<totfact> 0.27779889E+04</totfact>
</mgrwt>
</event>
<event>
 6    0  0.1539497E-004  0.3883991E+03  0.7546771E-02  0.1047872E+00
         21   -1    0    0  502  501  0.00000000000E+00  0.00000000000E+00  0.11106209495E+03  0.11106209495E+03  0.00000000000E+00 0.  1.
         21   -1    0    0  501  502 -0.00000000000E+00 -0.00000000000E+00 -0.33957091249E+03  0.33957091249E+03  0.00000000000E+00 0.  1.
      99925    2    1    2    0    0  0.21499907522E+01  0.49763129713E+01 -0.15964720363E+03  0.30773858445E+03  0.26303311689E+03 0.  0.
         25    1    1    2    0    0 -0.21499907522E+01 -0.49763129713E+01 -0.68861613908E+02  0.14289442299E+03  0.12509000000E+03 0.  0.
         25    1    3    3    0    0 -0.83682887532E+01  0.22267649571E+02 -0.40014304467E+02  0.13347107977E+03  0.12509000000E+03 0.  0.
         25    1    3    3    0    0  0.10518279505E+02 -0.17291336600E+02 -0.11963289916E+03  0.17426750468E+03  0.12509000000E+03 0.  0.
<mgrwt>
<rscale>  2 0.38839906E+03</rscale>
<asrwt>0</asrwt>
<pdfrwt beam="1">  1       21 0.16332661E-01 0.38839906E+03</pdfrwt>
<pdfrwt beam="2">  1       21 0.49936898E-01 0.38839906E+03</pdfrwt>
<totfact> 0.12149437E+05</totfact>
</mgrwt>
</event>
<event>
 6    0  0.1539497E-004  0.4383384E+03  0.7546771E-02  0.1031258E+00
         21   -1    0    0  502  501  0.00000000000E+00  0.00000000000E+00  0.53734389118E+03  0.53734389118E+03  0.00000000000E+00 0.  1.
         21   -1    0    0  501  502 -0.00000000000E+00 -0.00000000000E+00 -0.89393677097E+02  0.89393677097E+02  0.00000000000E+00 0.  1.
      99925    2    1    2    0    0  0.83933358907E+02  0.46170801314E+02  0.30617663546E+03  0.41478519786E+03  0.26291838397E+03 0.  0.
         25    1    3    3    0    0  0.53148637444E+02 -0.12478858164E+02  0.12687795381E+03  0.18634919594E+03  0.12509000000E+03 0.  0.
         25    1    3    3    0    0  0.30784721462E+02  0.58649659478E+02  0.17929868165E+03  0.22843600192E+03  0.12509000000E+03 0.  0.
         25    1    1    2    0    0 -0.83933358907E+02 -0.46170801314E+02  0.14177357863E+03  0.21195237042E+03  0.12509000000E+03 0.  0.
<mgrwt>
<rscale>  2 0.43833844E+03</rscale>
<asrwt>0</asrwt>
<pdfrwt beam="1">  1       21 0.79021159E-01 0.43833844E+03</pdfrwt>
<pdfrwt beam="2">  1       21 0.13146129E-01 0.43833844E+03</pdfrwt>
<totfact> 0.65226861E+04</totfact>
</mgrwt>
</event>
<event>
 6    0  0.1539497E-004  0.4524504E+03  0.7546771E-02  0.1026994E+00
         21   -1    0    0  502  501  0.00000000000E+00  0.00000000000E+00  0.12618831602E+03  0.12618831602E+03  0.00000000000E+00 0. -1.
         21   -1    0    0  501  502 -0.00000000000E+00 -0.00000000000E+00 -0.40556724001E+03  0.40556724001E+03  0.00000000000E+00 0. -1.
      99925    2    1    2    0    0 -0.84124795617E+01 -0.97971108185E+02 -0.11604451494E+03  0.30373199338E+03  0.26290242772E+03 0.  0.
         25    1    1    2    0    0  0.84124795617E+01  0.97971108185E+02 -0.16333440905E+03  0.22802356266E+03  0.12509000000E+03 0.  0.
         25    1    3    3    0    0  0.28948748635E+02 -0.69335859496E+02 -0.74056793621E+02  0.16363804032E+03  0.12509000000E+03 0.  0.
         25    1    3    3    0    0 -0.37361228197E+02 -0.28635248689E+02 -0.41987721322E+02  0.14009395305E+03  0.12509000000E+03 0.  0.
<mgrwt>
<rscale>  2 0.45245043E+03</rscale>
<asrwt>0</asrwt>
<pdfrwt beam="1">  1       21 0.18557106E-01 0.45245043E+03</pdfrwt>
<pdfrwt beam="2">  1       21 0.59642241E-01 0.45245043E+03</pdfrwt>
<totfact> 0.64377880E+04</totfact>
</mgrwt>
</event>
<event>
 6    0  0.1539497E-004  0.4391143E+03  0.7546771E-02  0.1031019E+00
         21   -1    0    0  502  501  0.00000000000E+00  0.00000000000E+00  0.44803811138E+03  0.44803811138E+03  0.00000000000E+00 0. -1.
         21   -1    0    0  501  502 -0.00000000000E+00 -0.00000000000E+00 -0.10759206188E+03  0.10759206188E+03  0.00000000000E+00 0. -1.
      99925    2    1    2    0    0 -0.75488155556E+02 -0.60810427245E+02  0.20379486700E+03  0.34654305392E+03  0.26298929772E+03 0.  0.
         25    1    3    3    0    0 -0.13573839613E+02  0.17138750503E+01  0.74216230661E+02  0.14609155856E+03  0.12509000000E+03 0.  0.
         25    1    3    3    0    0 -0.61914315943E+02 -0.62524302295E+02  0.12957863634E+03  0.20045149536E+03  0.12509000000E+03 0.  0.
         25    1    1    2    0    0  0.75488155556E+02  0.60810427245E+02  0.13665118250E+03  0.20908711933E+03  0.12509000000E+03 0.  0.
<mgrwt>
<rscale>  2 0.43911431E+03</rscale>
<asrwt>0</asrwt>
<pdfrwt beam="1">  1       21 0.65887957E-01 0.43911431E+03</pdfrwt>
<pdfrwt beam="2">  1       21 0.15822362E-01 0.43911431E+03</pdfrwt>
<totfact> 0.69871035E+04</totfact>
</mgrwt>
</event>
<event>
 6    0  0.1539497E-004  0.4619041E+03  0.7546771E-02  0.1024230E+00
         21   -1    0    0  502  501  0.00000000000E+00  0.00000000000E+00  0.67252467686E+02  0.67252467686E+02  0.00000000000E+00 0. -1.
         21   -1    0    0  501  502 -0.00000000000E+00 -0.00000000000E+00 -0.79311353575E+03  0.79311353575E+03  0.00000000000E+00 0. -1.
      99925    2    1    2    0    0 -0.68511724403E+02  0.65577464820E+02 -0.58934259742E+03  0.65232980178E+03  0.26308784252E+03 0.  0.
         25    1    1    2    0    0  0.68511724403E+02 -0.65577464820E+02 -0.13651847064E+03  0.20803620165E+03  0.12509000000E+03 0.  0.
         25    1    3    3    0    0 -0.16253079993E+02  0.77526882999E+01 -0.33943667165E+03  0.36220026083E+03  0.12509000000E+03 0.  0.
         25    1    3    3    0    0 -0.52258644410E+02  0.57824776520E+02 -0.24990592577E+03  0.29012954095E+03  0.12509000000E+03 0.  0.
<mgrwt>
<rscale>  2 0.46190407E+03</rscale>
<asrwt>0</asrwt>
<pdfrwt beam="1">  1       21 0.98900695E-02 0.46190407E+03</pdfrwt>
<pdfrwt beam="2">  1       21 0.11663434E+00 0.46190407E+03</pdfrwt>
<totfact> 0.42623617E+04</totfact>
</mgrwt>
</event>
<event>
 6    0  0.1539497E-004  0.5468655E+03  0.7546771E-02  0.1002222E+00
         21   -1    0    0  502  501  0.00000000000E+00  0.00000000000E+00  0.54329724536E+02  0.54329724536E+02  0.00000000000E+00 0. -1.
         21   -1    0    0  501  502 -0.00000000000E+00 -0.00000000000E+00 -0.13761428036E+04  0.13761428036E+04  0.00000000000E+00 0. -1.
      99925    2    1    2    0    0 -0.13518527903E+03  0.11365910768E+03 -0.62286659688E+03  0.69878465378E+03  0.26295197740E+03 0.  0.
         25    1    1    2    0    0  0.13518527903E+03 -0.11365910768E+03 -0.69894648220E+03  0.73168787437E+03  0.12509000000E+03 0.  0.
         25    1    3    3    0    0 -0.42174596760E+02  0.17715591414E+02 -0.24257878358E+03  0.27673907049E+03  0.12509000000E+03 0.  0.
         25    1    3    3    0    0 -0.93010682271E+02  0.95943516270E+02 -0.38028781330E+03  0.42204558329E+03  0.12509000000E+03 0.  0.
<mgrwt>
<rscale>  2 0.54686547E+03</rscale>
<asrwt>0</asrwt>
<pdfrwt beam="1">  1       21 0.79896666E-02 0.54686547E+03</pdfrwt>
<pdfrwt beam="2">  1       21 0.20237391E+00 0.54686547E+03</pdfrwt>
<totfact> 0.13245514E+04</totfact>
</mgrwt>
</event>
<event>
 6    0  0.1539497E-004  0.4650472E+03  0.7546771E-02  0.1023327E+00
         21   -1    0    0  502  501  0.00000000000E+00  0.00000000000E+00  0.14067026054E+04  0.14067026054E+04  0.00000000000E+00 0. -1.
         21   -1    0    0  501  502 -0.00000000000E+00 -0.00000000000E+00 -0.38435430748E+02  0.38435430748E+02  0.00000000000E+00 0. -1.
      99925    2    1    2    0    0  0.72142250291E+01  0.72143229575E+02  0.11597719541E+04  0.11914168197E+04  0.26295695841E+03 0.  0.
         25    1    3    3    0    0 -0.17106911637E+02  0.22377227460E+02  0.70300647389E+03  0.71460408421E+03  0.12509000000E+03 0.  0.
         25    1    1    2    0    0 -0.72142250291E+01 -0.72143229575E+02  0.20849522056E+03  0.25372121652E+03  0.12509000000E+03 0.  0.
         25    1    3    3    0    0  0.24321136666E+02  0.49766002115E+02  0.45676548023E+03  0.47681273545E+03  0.12509000000E+03 0.  0.
<mgrwt>
<rscale>  2 0.46504718E+03</rscale>
<asrwt>0</asrwt>
<pdfrwt beam="1">  1       21 0.20686800E+00 0.46504718E+03</pdfrwt>
<pdfrwt beam="2">  1       21 0.56522702E-02 0.46504718E+03</pdfrwt>
<totfact> 0.23282377E+04</totfact>
</mgrwt>
</event>
<event>
 6    0  0.1539497E-004  0.4997077E+03  0.7546771E-02  0.1013855E+00
         21   -1    0    0  502  501  0.00000000000E+00  0.00000000000E+00  0.63749690802E+03  0.63749690802E+03  0.00000000000E+00 0.  1.
         21   -1    0    0  501  502 -0.00000000000E+00 -0.00000000000E+00 -0.97925084992E+02  0.97925084992E+02  0.00000000000E+00 0.  1.
      99925    2    1    2    0    0  0.87218855970E+02  0.89598750204E+02  0.45284538558E+03  0.53843456213E+03  0.26307369609E+03 0.  0.
         25    1    3    3    0    0  0.77637683648E+01  0.22747354437E+02  0.22467440136E+03  0.25827081322E+03  0.12509000000E+03 0.  0.
         25    1    1    2    0    0 -0.87218855970E+02 -0.89598750204E+02  0.86726437445E+02  0.19698743089E+03  0.12509000000E+03 0.  0.
         25    1    3    3    0    0  0.79455087605E+02  0.66851395767E+02  0.22817098422E+03  0.28016374891E+03  0.12509000000E+03 0.  0.
<mgrwt>
<rscale>  2 0.49970767E+03</rscale>
<asrwt>0</asrwt>
<pdfrwt beam="1">  1       21 0.93749544E-01 0.49970767E+03</pdfrwt>
<pdfrwt beam="2">  1       21 0.14400748E-01 0.49970767E+03</pdfrwt>
<totfact> 0.36419591E+04</totfact>
</mgrwt>
</event>
<event>
 6    0  0.1811591E-004  0.3970642E+03  0.7546771E-02  0.1044801E+00
         21   -1    0    0  502  501  0.00000000000E+00  0.00000000000E+00  0.87101097979E+02  0.87101097979E+02  0.00000000000E+00 0.  1.
         21   -1    0    0  501  502 -0.00000000000E+00 -0.00000000000E+00 -0.45252009163E+03  0.45252009163E+03  0.00000000000E+00 0.  1.
      99925    2    1    2    0    0 -0.20136829629E+02  0.27986301263E+02 -0.27238224789E+03  0.37995882984E+03  0.26265547480E+03 0.  0.
         25    1    1    2    0    0  0.20136829629E+02 -0.27986301263E+02 -0.93036745765E+02  0.15966235977E+03  0.12509000000E+03 0.  0.
         25    1    3    3    0    0 -0.18454621077E+02  0.41079427819E+02 -0.99025543923E+02  0.16577592973E+03  0.12509000000E+03 0.  0.
         25    1    3    3    0    0 -0.16822085527E+01 -0.13093126556E+02 -0.17335670397E+03  0.21418290011E+03  0.12509000000E+03 0.  0.
<mgrwt>
<rscale>  2 0.39706421E+03</rscale>
<asrwt>0</asrwt>
<pdfrwt beam="1">  1       21 0.12808985E-01 0.39706421E+03</pdfrwt>
<pdfrwt beam="2">  1       21 0.66547072E-01 0.39706421E+03</pdfrwt>
<totfact> 0.10180650E+05</totfact>
</mgrwt>
</event>
<event>
 6    0  0.1539497E-004  0.3912849E+03  0.7546771E-02  0.1046840E+00
         21   -1    0    0  502  501  0.00000000000E+00  0.00000000000E+00  0.86927618840E+02  0.86927618840E+02  0.00000000000E+00 0. -1.
         21   -1    0    0  501  502 -0.00000000000E+00 -0.00000000000E+00 -0.44032004675E+03  0.44032004675E+03  0.00000000000E+00 0. -1.
      99925    2    1    2    0    0 -0.11105557414E+02  0.19946552046E+02 -0.23167890069E+03  0.35122809522E+03  0.26299213582E+03 0.  0.
         25    1    1    2    0    0  0.11105557414E+02 -0.19946552046E+02 -0.12171352721E+03  0.17601957036E+03  0.12509000000E+03 0.  0.
         25    1    3    3    0    0 -0.39400858880E+02  0.28972817633E+02 -0.13438210720E+03  0.18999450170E+03  0.12509000000E+03 0.  0.
         25    1    3    3    0    0  0.28295301466E+02 -0.90262655865E+01 -0.97296793492E+02  0.16123359352E+03  0.12509000000E+03 0.  0.
<mgrwt>
<rscale>  2 0.39128493E+03</rscale>
<asrwt>0</asrwt>
<pdfrwt beam="1">  1       21 0.12783473E-01 0.39128493E+03</pdfrwt>
<pdfrwt beam="2">  1       21 0.64752949E-01 0.39128493E+03</pdfrwt>
<totfact> 0.10870016E+05</totfact>
</mgrwt>
</event>
<event>
 6    0  0.1539497E-004  0.4098305E+03  0.7546771E-02  0.1040428E+00
         21   -1    0    0  502  501  0.00000000000E+00  0.00000000000E+00  0.15188732427E+03  0.15188732427E+03  0.00000000000E+00 0. -1.
         21   -1    0    0  501  502 -0.00000000000E+00 -0.00000000000E+00 -0.27645663707E+03  0.27645663707E+03  0.00000000000E+00 0. -1.
      99925    2    1    2    0    0  0.48728456750E+01 -0.48651887491E+02 -0.12189156258E+03  0.29401068465E+03  0.26304748407E+03 0.  0.
         25    1    1    2    0    0 -0.48728456750E+01  0.48651887491E+02 -0.26777502229E+01  0.13433327670E+03  0.12509000000E+03 0.  0.
         25    1    3    3    0    0 -0.13719667151E+02 -0.62164452420E+02 -0.62558923741E+02  0.15366774369E+03  0.12509000000E+03 0.  0.
         25    1    3    3    0    0  0.18592512826E+02  0.13512564929E+02 -0.59332638844E+02  0.14034294096E+03  0.12509000000E+03 0.  0.
<mgrwt>
<rscale>  2 0.40983050E+03</rscale>
<asrwt>0</asrwt>
<pdfrwt beam="1">  1       21 0.22336372E-01 0.40983050E+03</pdfrwt>
<pdfrwt beam="2">  1       21 0.40655387E-01 0.40983050E+03</pdfrwt>
<totfact> 0.10287027E+05</totfact>
</mgrwt>
</event>
<event>
 6    0  0.1539497E-004  0.4533391E+03  0.7546771E-02  0.1026731E+00
         21   -1    0    0  502  501  0.00000000000E+00  0.00000000000E+00  0.17184916266E+03  0.17184916266E+03  0.00000000000E+00 0. -1.
         21   -1    0    0  501  502 -0.00000000000E+00 -0.00000000000E+00 -0.29897778113E+03  0.29897778113E+03  0.00000000000E+00 0. -1.
      99925    2    1    2    0    0 -0.46434237607E+02 -0.67590545292E+02 -0.15762822646E+03  0.31817585659E+03  0.26394051926E+03 0.  0.
         25    1    3    3    0    0 -0.43195326092E+00 -0.67517751767E+02 -0.68118089044E+02  0.15762745808E+03  0.12509000000E+03 0.  0.
         25    1    1    2    0    0  0.46434237607E+02  0.67590545292E+02  0.30499607989E+02  0.15265108720E+03  0.12509000000E+03 0.  0.
         25    1    3    3    0    0 -0.46002284346E+02 -0.72793525358E-01 -0.89510137412E+02  0.16054839851E+03  0.12509000000E+03 0.  0.
<mgrwt>
<rscale>  2 0.45333908E+03</rscale>
<asrwt>0</asrwt>
<pdfrwt beam="1">  1       21 0.25271936E-01 0.45333908E+03</pdfrwt>
<pdfrwt beam="2">  1       21 0.43967320E-01 0.45333908E+03</pdfrwt>
<totfact> 0.68269465E+04</totfact>
</mgrwt>
</event>
<event>
 6    0  0.1539497E-004  0.3913905E+03  0.7546771E-02  0.1046802E+00
         21   -1    0    0  502  501  0.00000000000E+00  0.00000000000E+00  0.90372555675E+03  0.90372555675E+03  0.00000000000E+00 0.  1.
         21   -1    0    0  501  502 -0.00000000000E+00 -0.00000000000E+00 -0.42376404932E+02  0.42376404932E+02  0.00000000000E+00 0.  1.
      99925    2    1    2    0    0 -0.18457765405E+02  0.39000666118E+01  0.56828321705E+03  0.62689818689E+03  0.26400686036E+03 0.  0.
         25    1    3    3    0    0 -0.12707536793E+02  0.43389714705E+02  0.26943162566E+03  0.30047472080E+03  0.12509000000E+03 0.  0.
         25    1    3    3    0    0 -0.57502286117E+01 -0.39489648093E+02  0.29885159139E+03  0.32642346609E+03  0.12509000000E+03 0.  0.
         25    1    1    2    0    0  0.18457765405E+02 -0.39000666118E+01  0.29306593477E+03  0.31920377480E+03  0.12509000000E+03 0.  0.
<mgrwt>
<rscale>  2 0.39139055E+03</rscale>
<asrwt>0</asrwt>
<pdfrwt beam="1">  1       21 0.13290080E+00 0.39139055E+03</pdfrwt>
<pdfrwt beam="2">  1       21 0.62318248E-02 0.39139055E+03</pdfrwt>
<totfact> 0.70276579E+04</totfact>
</mgrwt>
</event>
<event>
 6    0  0.1539497E-004  0.4637683E+03  0.7546771E-02  0.1023694E+00
         21   -1    0    0  502  501  0.00000000000E+00  0.00000000000E+00  0.40517918587E+03  0.40517918587E+03  0.00000000000E+00 0.  1.
         21   -1    0    0  501  502 -0.00000000000E+00 -0.00000000000E+00 -0.13270735969E+03  0.13270735969E+03  0.00000000000E+00 0.  1.
      99925    2    1    2    0    0 -0.97512907848E+02 -0.30576212840E+02  0.94767760026E+02  0.29774093303E+03  0.26310656182E+03 0.  0.
         25    1    3    3    0    0 -0.65036495284E+02 -0.23846766905E+02  0.88533290646E+02  0.16817867184E+03  0.12509000000E+03 0.  0.
         25    1    3    3    0    0 -0.32476412565E+02 -0.67294459350E+01  0.62344693794E+01  0.12956226119E+03  0.12509000000E+03 0.  0.
         25    1    1    2    0    0  0.97512907848E+02  0.30576212840E+02  0.17770406616E+03  0.24014561253E+03  0.12509000000E+03 0.  0.
<mgrwt>
<rscale>  2 0.46376830E+03</rscale>
<asrwt>0</asrwt>
<pdfrwt beam="1">  1       21 0.59585174E-01 0.46376830E+03</pdfrwt>
<pdfrwt beam="2">  1       21 0.19515788E-01 0.46376830E+03</pdfrwt>
<totfact> 0.58503276E+04</totfact>
</mgrwt>
</event>
<event>
 6    0  0.1539497E-004  0.3997289E+03  0.7546771E-02  0.1043874E+00
         21   -1    0    0  502  501  0.00000000000E+00  0.00000000000E+00  0.19671433732E+03  0.19671433732E+03  0.00000000000E+00 0.  1.
         21   -1    0    0  501  502 -0.00000000000E+00 -0.00000000000E+00 -0.20306501197E+03  0.20306501197E+03  0.00000000000E+00 0.  1.
      99925    2    1    2    0    0  0.28457359369E+02 -0.26343646983E+02  0.17932554322E+02  0.26658403275E+03  0.26313810247E+03 0.  0.
         25    1    3    3    0    0  0.35513867283E+02 -0.86043787055E+01 -0.25519014365E+02  0.13279306569E+03  0.12509000000E+03 0.  0.
         25    1    1    2    0    0 -0.28457359369E+02  0.26343646983E+02 -0.24283228972E+02  0.13319531654E+03  0.12509000000E+03 0.  0.
         25    1    3    3    0    0 -0.70565079140E+01 -0.17739268278E+02  0.43451568688E+02  0.13379096705E+03  0.12509000000E+03 0.  0.
<mgrwt>
<rscale>  2 0.39972890E+03</rscale>
<asrwt>0</asrwt>
<pdfrwt beam="1">  1       21 0.28928579E-01 0.39972890E+03</pdfrwt>
<pdfrwt beam="2">  1       21 0.29862502E-01 0.39972890E+03</pdfrwt>
<totfact> 0.11618598E+05</totfact>
</mgrwt>
</event>
<event>
 6    0  0.1539497E-004  0.4052529E+03  0.7546771E-02  0.1041976E+00
         21   -1    0    0  502  501  0.00000000000E+00  0.00000000000E+00  0.44007153991E+03  0.44007153991E+03  0.00000000000E+00 0.  1.
         21   -1    0    0  501  502 -0.00000000000E+00 -0.00000000000E+00 -0.93297286190E+02  0.93297286190E+02  0.00000000000E+00 0.  1.
      99925    2    1    2    0    0  0.52697581457E+02 -0.99428356606E+01  0.21677416425E+03  0.34515770413E+03  0.26318606984E+03 0.  0.
         25    1    3    3    0    0  0.15166870553E+02  0.21746583522E+02  0.68563611816E+02  0.14509109146E+03  0.12509000000E+03 0.  0.
         25    1    1    2    0    0 -0.52697581457E+02  0.99428356606E+01  0.13000008947E+03  0.18821112197E+03  0.12509000000E+03 0.  0.
         25    1    3    3    0    0  0.37530710904E+02 -0.31689419183E+02  0.14821055244E+03  0.20006661266E+03  0.12509000000E+03 0.  0.
<mgrwt>
<rscale>  2 0.40525291E+03</rscale>
<asrwt>0</asrwt>
<pdfrwt beam="1">  1       21 0.64716402E-01 0.40525291E+03</pdfrwt>
<pdfrwt beam="2">  1       21 0.13720189E-01 0.40525291E+03</pdfrwt>
<totfact> 0.95328092E+04</totfact>
</mgrwt>
</event>
<event>
 6    0  0.1539497E-004  0.4026669E+03  0.7546771E-02  0.1042860E+00
         21   -1    0    0  502  501  0.00000000000E+00  0.00000000000E+00  0.13610742604E+04  0.13610742604E+04  0.00000000000E+00 0. -1.
         21   -1    0    0  501  502 -0.00000000000E+00 -0.00000000000E+00 -0.29781734879E+02  0.29781734879E+02  0.00000000000E+00 0. -1.
      99925    2    1    2    0    0 -0.11114854912E+02 -0.19926038901E+02  0.10398821870E+04  0.10729124774E+04  0.26318365151E+03 0.  0.
         25    1    3    3    0    0 -0.30253414870E+02  0.22276033393E+02  0.49558673616E+03  0.51250874327E+03  0.12509000000E+03 0.  0.
         25    1    3    3    0    0  0.19138559959E+02 -0.42202072294E+02  0.54429545080E+03  0.56040373415E+03  0.12509000000E+03 0.  0.
         25    1    1    2    0    0  0.11114854912E+02  0.19926038901E+02  0.29141033853E+03  0.31794351783E+03  0.12509000000E+03 0.  0.
<mgrwt>
<rscale>  2 0.40266687E+03</rscale>
<asrwt>0</asrwt>
<pdfrwt beam="1">  1       21 0.20015794E+00 0.40266687E+03</pdfrwt>
<pdfrwt beam="2">  1       21 0.43796678E-02 0.40266687E+03</pdfrwt>
<totfact> 0.40829047E+04</totfact>
</mgrwt>
</event>
<event>
 6    0  0.1539497E-004  0.4005417E+03  0.7546771E-02  0.1043592E+00
         21   -1    0    0  502  501  0.00000000000E+00  0.00000000000E+00  0.16559787233E+03  0.16559787233E+03  0.00000000000E+00 0. -1.
         21   -1    0    0  501  502 -0.00000000000E+00 -0.00000000000E+00 -0.24220368042E+03  0.24220368042E+03  0.00000000000E+00 0. -1.
      99925    2    1    2    0    0  0.36265882668E+02  0.22703163933E+00 -0.23311982825E+02  0.26707840007E+03  0.26357571484E+03 0.  0.
         25    1    1    2    0    0 -0.36265882668E+02 -0.22703163933E+00 -0.53293825263E+02  0.14072315268E+03  0.12509000000E+03 0.  0.
         25    1    3    3    0    0  0.25155213787E+02  0.13745717959E+02  0.26959655700E+02  0.13113375110E+03  0.12509000000E+03 0.  0.
         25    1    3    3    0    0  0.11110668881E+02 -0.13518686320E+02 -0.50271638525E+02  0.13594464897E+03  0.12509000000E+03 0.  0.
<mgrwt>
<rscale>  2 0.40054170E+03</rscale>
<asrwt>0</asrwt>
<pdfrwt beam="1">  1       21 0.24352629E-01 0.40054170E+03</pdfrwt>
<pdfrwt beam="2">  1       21 0.35618188E-01 0.40054170E+03</pdfrwt>
<totfact> 0.11428805E+05</totfact>
</mgrwt>
</event>
<event>
 6    0  0.1539497E-004  0.4012059E+03  0.7546771E-02  0.1043363E+00
         21   -1    0    0  502  501  0.00000000000E+00  0.00000000000E+00  0.17285315922E+03  0.17285315922E+03  0.00000000000E+00 0. -1.
         21   -1    0    0  501  502 -0.00000000000E+00 -0.00000000000E+00 -0.23280764966E+03  0.23280764966E+03  0.00000000000E+00 0. -1.
      99925    2    1    2    0    0  0.25614769109E+02  0.26023901787E+02 -0.90453055755E+01  0.26575865356E+03  0.26308265721E+03 0.  0.
         25    1    1    2    0    0 -0.25614769109E+02 -0.26023901787E+02 -0.50909184862E+02  0.13990215532E+03  0.12509000000E+03 0.  0.
         25    1    3    3    0    0 -0.91778229051E+01  0.18173161182E+02 -0.38372890124E+02  0.13241783497E+03  0.12509000000E+03 0.  0.
         25    1    3    3    0    0  0.34792592014E+02  0.78507406047E+01  0.29327584549E+02  0.13334081859E+03  0.12509000000E+03 0.  0.
<mgrwt>
<rscale>  2 0.40120587E+03</rscale>
<asrwt>0</asrwt>
<pdfrwt beam="1">  1       21 0.25419582E-01 0.40120587E+03</pdfrwt>
<pdfrwt beam="2">  1       21 0.34236419E-01 0.40120587E+03</pdfrwt>
<totfact> 0.11389179E+05</totfact>
</mgrwt>
</event>
<event>
 6    0  0.1539497E-004  0.5026290E+03  0.7546771E-02  0.1013095E+00
         21   -1    0    0  502  501  0.00000000000E+00  0.00000000000E+00  0.36952943393E+03  0.36952943393E+03  0.00000000000E+00 0.  1.
         21   -1    0    0  501  502 -0.00000000000E+00 -0.00000000000E+00 -0.17091733148E+03  0.17091733148E+03  0.00000000000E+00 0.  1.
      99925    2    1    2    0    0 -0.12396351433E+03  0.16750689162E+02  0.23924195827E+02  0.29182876266E+03  0.26257212552E+03 0.  0.
         25    1    3    3    0    0 -0.10588757929E+03  0.11576468511E+02  0.10736222241E+02  0.16464801438E+03  0.12509000000E+03 0.  0.
         25    1    1    2    0    0  0.12396351433E+03 -0.16750689162E+02  0.17468790662E+03  0.24861800275E+03  0.12509000000E+03 0.  0.
         25    1    3    3    0    0 -0.18075935039E+02  0.51742206515E+01  0.13187973586E+02  0.12718074828E+03  0.12509000000E+03 0.  0.
<mgrwt>
<rscale>  2 0.50262903E+03</rscale>
<asrwt>0</asrwt>
<pdfrwt beam="1">  1       21 0.54342564E-01 0.50262903E+03</pdfrwt>
<pdfrwt beam="2">  1       21 0.25134902E-01 0.50262903E+03</pdfrwt>
<totfact> 0.43569736E+04</totfact>
</mgrwt>
</event>
<event>
 6    0  0.1539497E-004  0.4409674E+03  0.7546771E-02  0.1030450E+00
         21   -1    0    0  502  501  0.00000000000E+00  0.00000000000E+00  0.58089694601E+02  0.58089694601E+02  0.00000000000E+00 0. -1.
         21   -1    0    0  501  502 -0.00000000000E+00 -0.00000000000E+00 -0.83686211736E+03  0.83686211736E+03  0.00000000000E+00 0. -1.
      99925    2    1    2    0    0 -0.22104249249E+02  0.41750642534E+02 -0.67430319689E+03  0.72526668815E+03  0.26285976037E+03 0.  0.
         25    1    3    3    0    0 -0.47547832667E+02  0.30212472247E+02 -0.38940176858E+03  0.41286176299E+03  0.12509000000E+03 0.  0.
         25    1    3    3    0    0  0.25443583418E+02  0.11538170287E+02 -0.28490142831E+03  0.31240492516E+03  0.12509000000E+03 0.  0.
         25    1    1    2    0    0  0.22104249249E+02 -0.41750642534E+02 -0.10446922587E+03  0.16968512380E+03  0.12509000000E+03 0.  0.
<mgrwt>
<rscale>  2 0.44096741E+03</rscale>
<asrwt>0</asrwt>
<pdfrwt beam="1">  1       21 0.85426023E-02 0.44096741E+03</pdfrwt>
<pdfrwt beam="2">  1       21 0.12306796E+00 0.44096741E+03</pdfrwt>
<totfact> 0.48571758E+04</totfact>
</mgrwt>
</event>
<event>
 6    0  0.1539497E-004  0.3989202E+03  0.7546771E-02  0.1044154E+00
         21   -1    0    0  502  501  0.00000000000E+00  0.00000000000E+00  0.49614960751E+02  0.49614960751E+02  0.00000000000E+00 0. -1.
         21   -1    0    0  501  502 -0.00000000000E+00 -0.00000000000E+00 -0.80186176194E+03  0.80186176194E+03  0.00000000000E+00 0. -1.
      99925    2    1    2    0    0 -0.39282408484E+02  0.16164466581E+02 -0.48539604169E+03  0.55371636008E+03  0.26303629510E+03 0.  0.
         25    1    1    2    0    0  0.39282408484E+02 -0.16164466581E+02 -0.26685075950E+03  0.29776036261E+03  0.12509000000E+03 0.  0.
         25    1    3    3    0    0 -0.35821147228E+02  0.44669421047E+02 -0.26851292737E+03  0.30170384822E+03  0.12509000000E+03 0.  0.
         25    1    3    3    0    0 -0.34612612554E+01 -0.28504954466E+02 -0.21688311433E+03  0.25201251187E+03  0.12509000000E+03 0.  0.
<mgrwt>
<rscale>  2 0.39892024E+03</rscale>
<asrwt>0</asrwt>
<pdfrwt beam="1">  1       21 0.72963178E-02 0.39892024E+03</pdfrwt>
<pdfrwt beam="2">  1       21 0.11792085E+00 0.39892024E+03</pdfrwt>
<totfact> 0.72302380E+04</totfact>
</mgrwt>
</event>
<event>
 6    0  0.1539497E-004  0.4296703E+03  0.7546771E-02  0.1033964E+00
         21   -1    0    0  502  501  0.00000000000E+00  0.00000000000E+00  0.10431310615E+03  0.10431310615E+03  0.00000000000E+00 0.  1.
         21   -1    0    0  501  502 -0.00000000000E+00 -0.00000000000E+00 -0.44245765930E+03  0.44245765930E+03  0.00000000000E+00 0.  1.
      99925    2    1    2    0    0  0.49738278618E+02  0.69653554882E+02 -0.20162849367E+03  0.34278631344E+03  0.26367194229E+03 0.  0.
         25    1    3    3    0    0 -0.10755507394E+02  0.53908181803E+02 -0.11217449993E+03  0.17678348209E+03  0.12509000000E+03 0.  0.
         25    1    3    3    0    0  0.60493786012E+02  0.15745373079E+02 -0.89453993741E+02  0.16600283135E+03  0.12509000000E+03 0.  0.
         25    1    1    2    0    0 -0.49738278618E+02 -0.69653554882E+02 -0.13651605948E+03  0.20398445202E+03  0.12509000000E+03 0.  0.
<mgrwt>
<rscale>  2 0.42967026E+03</rscale>
<asrwt>0</asrwt>
<pdfrwt beam="1">  1       21 0.15340163E-01 0.42967026E+03</pdfrwt>
<pdfrwt beam="2">  1       21 0.65067303E-01 0.42967026E+03</pdfrwt>
<totfact> 0.76251710E+04</totfact>
</mgrwt>
</event>
<event>
 6    0  0.1539497E-004  0.3973709E+03  0.7546771E-02  0.1044694E+00
         21   -1    0    0  502  501  0.00000000000E+00  0.00000000000E+00  0.84589617625E+02  0.84589617625E+02  0.00000000000E+00 0. -1.
         21   -1    0    0  501  502 -0.00000000000E+00 -0.00000000000E+00 -0.46667551205E+03  0.46667551205E+03  0.00000000000E+00 0. -1.
      99925    2    1    2    0    0 -0.43927368268E+01 -0.17117407958E+02 -0.30615101836E+03  0.40386799505E+03  0.26280907442E+03 0.  0.
         25    1    3    3    0    0 -0.25172680394E+02 -0.14348114016E+02 -0.10406684505E+03  0.16527839712E+03  0.12509000000E+03 0.  0.
         25    1    1    2    0    0  0.43927368268E+01  0.17117407958E+02 -0.75934876072E+02  0.14739713463E+03  0.12509000000E+03 0.  0.
         25    1    3    3    0    0  0.20779943567E+02 -0.27692939420E+01 -0.20208417330E+03  0.23858959794E+03  0.12509000000E+03 0.  0.
<mgrwt>
<rscale>  2 0.39737088E+03</rscale>
<asrwt>0</asrwt>
<pdfrwt beam="1">  1       21 0.12439650E-01 0.39737088E+03</pdfrwt>
<pdfrwt beam="2">  1       21 0.68628749E-01 0.39737088E+03</pdfrwt>
<totfact> 0.10024956E+05</totfact>
</mgrwt>
</event>
<event>
 6    0  0.1539497E-004  0.5217811E+03  0.7546771E-02  0.1008245E+00
         21   -1    0    0  502  501  0.00000000000E+00  0.00000000000E+00  0.66462502874E+03  0.66462502874E+03  0.00000000000E+00 0. -1.
         21   -1    0    0  501  502 -0.00000000000E+00 -0.00000000000E+00 -0.10240946063E+03  0.10240946063E+03  0.00000000000E+00 0. -1.
      99925    2    1    2    0    0  0.35710982492E+02  0.15767141703E+03  0.40437589324E+03  0.50877798687E+03  0.26305821954E+03 0.  0.
         25    1    3    3    0    0  0.20762518834E+02  0.12452768099E+03  0.25096504994E+03  0.30752103979E+03  0.12509000000E+03 0.  0.
         25    1    1    2    0    0 -0.35710982492E+02 -0.15767141703E+03  0.15783967488E+03  0.25825650250E+03  0.12509000000E+03 0.  0.
         25    1    3    3    0    0  0.14948463658E+02  0.33143736035E+02  0.15341084330E+03  0.20125694707E+03  0.12509000000E+03 0.  0.
<mgrwt>
<rscale>  2 0.52178114E+03</rscale>
<asrwt>0</asrwt>
<pdfrwt beam="1">  1       21 0.97738973E-01 0.52178114E+03</pdfrwt>
<pdfrwt beam="2">  1       21 0.15060215E-01 0.52178114E+03</pdfrwt>
<totfact> 0.30170061E+04</totfact>
</mgrwt>
</event>
<event>
 6    0  0.1539497E-004  0.4130993E+03  0.7546771E-02  0.1039336E+00
         21   -1    0    0  502  501  0.00000000000E+00  0.00000000000E+00  0.21965221110E+02  0.21965221110E+02  0.00000000000E+00 0.  1.
         21   -1    0    0  501  502 -0.00000000000E+00 -0.00000000000E+00 -0.19422863392E+04  0.19422863392E+04  0.00000000000E+00 0.  1.
      99925    2    1    2    0    0  0.11388467101E+02  0.58390674009E+02 -0.11225717896E+04  0.11545660243E+04  0.26327953529E+03 0.  0.
         25    1    3    3    0    0 -0.53038059588E+01  0.21889194813E+02 -0.38649013519E+03  0.40685304461E+03  0.12509000000E+03 0.  0.
         25    1    3    3    0    0  0.16692273060E+02  0.36501479196E+02 -0.73608165441E+03  0.74771297971E+03  0.12509000000E+03 0.  0.
         25    1    1    2    0    0 -0.11388467101E+02 -0.58390674009E+02 -0.79774932846E+03  0.80968553596E+03  0.12509000000E+03 0.  0.
<mgrwt>
<rscale>  2 0.41309926E+03</rscale>
<asrwt>0</asrwt>
<pdfrwt beam="1">  1       21 0.32301787E-02 0.41309926E+03</pdfrwt>
<pdfrwt beam="2">  1       21 0.28563042E+00 0.41309926E+03</pdfrwt>
<totfact> 0.20083108E+04</totfact>
</mgrwt>
</event>
<event>
 6    0  0.1539497E-004  0.3971895E+03  0.7546771E-02  0.1044757E+00
         21   -1    0    0  502  501  0.00000000000E+00  0.00000000000E+00  0.62631556185E+03  0.62631556185E+03  0.00000000000E+00 0. -1.
         21   -1    0    0  501  502 -0.00000000000E+00 -0.00000000000E+00 -0.62971258698E+02  0.62971258698E+02  0.00000000000E+00 0. -1.
      99925    2    1    2    0    0  0.20198420628E+02 -0.31206465387E+02  0.39715901253E+03  0.47798874058E+03  0.26335553006E+03 0.  0.
         25    1    1    2    0    0 -0.20198420628E+02  0.31206465387E+02  0.16618529062E+03  0.21129807997E+03  0.12509000000E+03 0.  0.
         25    1    3    3    0    0 -0.19984467650E+02 -0.36110205696E+02  0.16437991910E+03  0.21064565461E+03  0.12509000000E+03 0.  0.
         25    1    3    3    0    0  0.40182888278E+02  0.49037403089E+01  0.23277909343E+03  0.26734308597E+03  0.12509000000E+03 0.  0.
<mgrwt>
<rscale>  2 0.39718952E+03</rscale>
<asrwt>0</asrwt>
<pdfrwt beam="1">  1       21 0.92105226E-01 0.39718952E+03</pdfrwt>
<pdfrwt beam="2">  1       21 0.92604796E-02 0.39718952E+03</pdfrwt>
<totfact> 0.86717595E+04</totfact>
</mgrwt>
</event>
<event>
 6    0  0.1539497E-004  0.5244355E+03  0.7546771E-02  0.1007591E+00
         21   -1    0    0  502  501  0.00000000000E+00  0.00000000000E+00  0.41569085672E+02  0.41569085672E+02  0.00000000000E+00 0.  1.
         21   -1    0    0  501  502 -0.00000000000E+00 -0.00000000000E+00 -0.16540692437E+04  0.16540692437E+04  0.00000000000E+00 0.  1.
      99925    2    1    2    0    0 -0.22661131222E+02  0.74815381409E+02 -0.14518857670E+04  0.14775664172E+04  0.26290562702E+03 0.  0.
         25    1    1    2    0    0  0.22661131222E+02 -0.74815381409E+02 -0.16061439103E+03  0.21807191215E+03  0.12509000000E+03 0.  0.
         25    1    3    3    0    0 -0.46855143310E+02  0.18246422488E+02 -0.69816664263E+03  0.71106434686E+03  0.12509000000E+03 0.  0.
         25    1    3    3    0    0  0.24194012088E+02  0.56568958921E+02 -0.75371912434E+03  0.76650207033E+03  0.12509000000E+03 0.  0.
<mgrwt>
<rscale>  2 0.52443549E+03</rscale>
<asrwt>0</asrwt>
<pdfrwt beam="1">  1       21 0.61130998E-02 0.52443549E+03</pdfrwt>
<pdfrwt beam="2">  1       21 0.24324552E+00 0.52443549E+03</pdfrwt>
<totfact> 0.11679471E+04</totfact>
</mgrwt>
</event>
<event>
 6    0  0.1539497E-004  0.4126614E+03  0.7546771E-02  0.1039482E+00
         21   -1    0    0  502  501  0.00000000000E+00  0.00000000000E+00  0.74896379609E+03  0.74896379609E+03  0.00000000000E+00 0. -1.
         21   -1    0    0  501  502 -0.00000000000E+00 -0.00000000000E+00 -0.56841689159E+02  0.56841689159E+02  0.00000000000E+00 0. -1.
      99925    2    1    2    0    0  0.62608385846E+02  0.20936604383E+02  0.45770022507E+03  0.53201856413E+03  0.26305152569E+03 0.  0.
         25    1    3    3    0    0  0.48135534133E+02  0.15989341580E+02  0.30837140159E+03  0.33662013919E+03  0.12509000000E+03 0.  0.
         25    1    1    2    0    0 -0.62608385846E+02 -0.20936604383E+02  0.23442188185E+03  0.27378692112E+03  0.12509000000E+03 0.  0.
         25    1    3    3    0    0  0.14472851713E+02  0.49472628029E+01  0.14932882348E+03  0.19539842494E+03  0.12509000000E+03 0.  0.
<mgrwt>
<rscale>  2 0.41266145E+03</rscale>
<asrwt>0</asrwt>
<pdfrwt beam="1">  1       21 0.11014173E+00 0.41266145E+03</pdfrwt>
<pdfrwt beam="2">  1       21 0.83590724E-02 0.41266145E+03</pdfrwt>
<totfact> 0.67171893E+04</totfact>
</mgrwt>
</event>
<event>
 6    0  0.1539497E-004  0.4129773E+03  0.7546771E-02  0.1039376E+00
         21   -1    0    0  502  501  0.00000000000E+00  0.00000000000E+00  0.31454227436E+03  0.31454227436E+03  0.00000000000E+00 0.  1.
         21   -1    0    0  501  502 -0.00000000000E+00 -0.00000000000E+00 -0.13555434653E+03  0.13555434653E+03  0.00000000000E+00 0.  1.
      99925    2    1    2    0    0 -0.57193224358E+02 -0.88256618491E+01  0.15293436251E+03  0.30982811557E+03  0.26316455829E+03 0.  0.
         25    1    3    3    0    0 -0.21707389762E+02 -0.39686112768E+02  0.98554152696E+02  0.16554947125E+03  0.12509000000E+03 0.  0.
         25    1    1    2    0    0  0.57193224358E+02  0.88256618491E+01  0.26053565325E+02  0.14026850532E+03  0.12509000000E+03 0.  0.
         25    1    3    3    0    0 -0.35485834596E+02  0.30860450919E+02  0.54380209811E+02  0.14427864432E+03  0.12509000000E+03 0.  0.
<mgrwt>
<rscale>  2 0.41297735E+03</rscale>
<asrwt>0</asrwt>
<pdfrwt beam="1">  1       21 0.46256217E-01 0.41297735E+03</pdfrwt>
<pdfrwt beam="2">  1       21 0.19934463E-01 0.41297735E+03</pdfrwt>
<totfact> 0.97675952E+04</totfact>
</mgrwt>
</event>
<event>
 6    0  0.1539497E-004  0.3973130E+03  0.7546771E-02  0.1044714E+00
         21   -1    0    0  502  501  0.00000000000E+00  0.00000000000E+00  0.97268195874E+02  0.97268195874E+02  0.00000000000E+00 0. -1.
         21   -1    0    0  501  502 -0.00000000000E+00 -0.00000000000E+00 -0.40572770100E+03  0.40572770100E+03  0.00000000000E+00 0. -1.
      99925    2    1    2    0    0 -0.23780791101E+02  0.21154010455E+02 -0.23747256021E+03  0.35568780941E+03  0.26288321119E+03 0.  0.
         25    1    1    2    0    0  0.23780791101E+02 -0.21154010455E+02 -0.70986944911E+02  0.14730808746E+03  0.12509000000E+03 0.  0.
         25    1    3    3    0    0  0.18845459061E+02  0.32764798681E+02 -0.13652902262E+03  0.18898773896E+03  0.12509000000E+03 0.  0.
         25    1    3    3    0    0 -0.42626250162E+02 -0.11610788226E+02 -0.10094353760E+03  0.16670007045E+03  0.12509000000E+03 0.  0.
<mgrwt>
<rscale>  2 0.39731298E+03</rscale>
<asrwt>0</asrwt>
<pdfrwt beam="1">  1       21 0.14304147E-01 0.39731298E+03</pdfrwt>
<pdfrwt beam="2">  1       21 0.59665838E-01 0.39731298E+03</pdfrwt>
<totfact> 0.10573859E+05</totfact>
</mgrwt>
</event>
<event>
 6    0  0.1539497E-004  0.4050807E+03  0.7546771E-02  0.1042034E+00
         21   -1    0    0  502  501  0.00000000000E+00  0.00000000000E+00  0.56783320755E+03  0.56783320755E+03  0.00000000000E+00 0. -1.
         21   -1    0    0  501  502 -0.00000000000E+00 -0.00000000000E+00 -0.72244075055E+02  0.72244075055E+02  0.00000000000E+00 0. -1.
      99925    2    1    2    0    0  0.49300993542E+02  0.23100306199E+02  0.33589757236E+03  0.43004605972E+03  0.26296049560E+03 0.  0.
         25    1    3    3    0    0  0.10597800651E+02  0.18495408778E+01  0.10462794536E+03  0.16343270551E+03  0.12509000000E+03 0.  0.
         25    1    3    3    0    0  0.38703192891E+02  0.21250765322E+02  0.23126962700E+03  0.26661335421E+03  0.12509000000E+03 0.  0.
         25    1    1    2    0    0 -0.49300993542E+02 -0.23100306199E+02  0.15969156014E+03  0.21003122289E+03  0.12509000000E+03 0.  0.
<mgrwt>
<rscale>  2 0.40508066E+03</rscale>
<asrwt>0</asrwt>
<pdfrwt beam="1">  1       21 0.83504881E-01 0.40508066E+03</pdfrwt>
<pdfrwt beam="2">  1       21 0.10624129E-01 0.40508066E+03</pdfrwt>
<totfact> 0.85170947E+04</totfact>
</mgrwt>
</event>
<event>
 6    0  0.1539497E-004  0.4238902E+03  0.7546771E-02  0.1035808E+00
         21   -1    0    0  502  501  0.00000000000E+00  0.00000000000E+00  0.67511017746E+03  0.67511017746E+03  0.00000000000E+00 0. -1.
         21   -1    0    0  501  502 -0.00000000000E+00 -0.00000000000E+00 -0.66538353781E+02  0.66538353781E+02  0.00000000000E+00 0. -1.
      99925    2    1    2    0    0  0.37694042687E+02 -0.33052054027E+02  0.28496105663E+03  0.39109936810E+03  0.26313994908E+03 0.  0.
         25    1    3    3    0    0  0.43702650680E+02 -0.22582455320E+02  0.19377801633E+03  0.23583323913E+03  0.12509000000E+03 0.  0.
         25    1    1    2    0    0 -0.37694042687E+02  0.33052054027E+02  0.32361076704E+03  0.35054916314E+03  0.12509000000E+03 0.  0.
         25    1    3    3    0    0 -0.60086079928E+01 -0.10469598707E+02  0.91183040296E+02  0.15526612897E+03  0.12509000000E+03 0.  0.
<mgrwt>
<rscale>  2 0.42389017E+03</rscale>
<asrwt>0</asrwt>
<pdfrwt beam="1">  1       21 0.99280904E-01 0.42389017E+03</pdfrwt>
<pdfrwt beam="2">  1       21 0.97850524E-02 0.42389017E+03</pdfrwt>
<totfact> 0.65252329E+04</totfact>
</mgrwt>
</event>
<event>
 5    0  0.1539497E-004  0.4479930E+03  0.7546771E-02  0.1028322E+00
         21   -1    0    0  502  501  0.00000000000E+00  0.00000000000E+00  0.15992636271E+03  0.15992636271E+03  0.00000000000E+00 0.  1.
         21   -1    0    0  501  502 -0.00000000000E+00 -0.00000000000E+00 -0.31373464264E+03  0.31373464264E+03  0.00000000000E+00 0.  1.
         25    1    1    2    0    0  0.39446766190E+02  0.20193751673E+02  0.24726294257E+02  0.13499160232E+03  0.12509000000E+03 0.  0.
         25    1    1    2    0    0 -0.30379652057E+02  0.40999753191E+02 -0.37371208547E+02  0.14017138920E+03  0.12509000000E+03 0.  0.
         25    1    1    2    0    0 -0.90671141333E+01 -0.61193504864E+02 -0.14116336564E+03  0.19849801383E+03  0.12509000000E+03 0.  0.
<mgrwt>
<rscale>  2 0.44799304E+03</rscale>
<asrwt>0</asrwt>
<pdfrwt beam="1">  1       21 0.23518583E-01 0.44799304E+03</pdfrwt>
<pdfrwt beam="2">  1       21 0.46137447E-01 0.44799304E+03</pdfrwt>
<totfact> 0.71033424E+04</totfact>
</mgrwt>
</event>
<event>
 6    0  0.1539497E-004  0.4261465E+03  0.7546771E-02  0.1035084E+00
         21   -1    0    0  502  501  0.00000000000E+00  0.00000000000E+00  0.98756878017E+03  0.98756878017E+03  0.00000000000E+00 0.  1.
         21   -1    0    0  501  502 -0.00000000000E+00 -0.00000000000E+00 -0.45971693798E+02  0.45971693798E+02  0.00000000000E+00 0.  1.
      99925    2    1    2    0    0 -0.41650763332E+02 -0.29310472061E+02  0.76967921453E+03  0.81491487479E+03  0.26284267159E+03 0.  0.
         25    1    3    3    0    0  0.74311526955E+01 -0.31247746634E+02  0.44925818568E+03  0.46745274542E+03  0.12509000000E+03 0.  0.
         25    1    1    2    0    0  0.41650763332E+02  0.29310472061E+02  0.17191787184E+03  0.21862559918E+03  0.12509000000E+03 0.  0.
         25    1    3    3    0    0 -0.49081916028E+02  0.19372745732E+01  0.32042102885E+03  0.34746212936E+03  0.12509000000E+03 0.  0.
<mgrwt>
<rscale>  2 0.42614650E+03</rscale>
<asrwt>0</asrwt>
<pdfrwt beam="1">  1       21 0.14523069E+00 0.42614650E+03</pdfrwt>
<pdfrwt beam="2">  1       21 0.67605438E-02 0.42614650E+03</pdfrwt>
<totfact> 0.47774852E+04</totfact>
</mgrwt>
</event>
<event>
 6    0  0.1539497E-004  0.4191958E+03  0.7546771E-02  0.1037328E+00
         21   -1    0    0  502  501  0.00000000000E+00  0.00000000000E+00  0.19181220593E+04  0.19181220593E+04  0.00000000000E+00 0. -1.
         21   -1    0    0  501  502 -0.00000000000E+00 -0.00000000000E+00 -0.22903273929E+02  0.22903273929E+02  0.00000000000E+00 0. -1.
      99925    2    1    2    0    0 -0.90405520540E+01  0.60868415440E+02  0.10388087329E+04  0.10733431439E+04  0.26297381136E+03 0.  0.
         25    1    1    2    0    0  0.90405520540E+01 -0.60868415440E+02  0.85641005246E+03  0.86768218930E+03  0.12509000000E+03 0.  0.
         25    1    3    3    0    0 -0.33960703280E+02  0.21313589858E+01  0.50506252175E+03  0.52143410997E+03  0.12509000000E+03 0.  0.
         25    1    3    3    0    0  0.24920151226E+02  0.58737056455E+02  0.53374621115E+03  0.55190903395E+03  0.12509000000E+03 0.  0.
<mgrwt>
<rscale>  2 0.41919578E+03</rscale>
<asrwt>0</asrwt>
<pdfrwt beam="1">  1       21 0.28207666E+00 0.41919578E+03</pdfrwt>
<pdfrwt beam="2">  1       21 0.33681298E-02 0.41919578E+03</pdfrwt>
<totfact> 0.19605625E+04</totfact>
</mgrwt>
</event>
<event>
 6    0  0.1539497E-004  0.3953956E+03  0.7546771E-02  0.1045386E+00
         21   -1    0    0  502  501  0.00000000000E+00  0.00000000000E+00  0.56392565744E+02  0.56392565744E+02  0.00000000000E+00 0.  1.
         21   -1    0    0  501  502 -0.00000000000E+00 -0.00000000000E+00 -0.69307737451E+03  0.69307737451E+03  0.00000000000E+00 0.  1.
      99925    2    1    2    0    0  0.77601706723E-02 -0.54784710935E+01 -0.36058775590E+03  0.44630809502E+03  0.26293986436E+03 0.  0.
         25    1    3    3    0    0 -0.24012687976E+01 -0.12614374353E+02 -0.24703216964E+03  0.27719539944E+03  0.12509000000E+03 0.  0.
         25    1    3    3    0    0  0.24090289683E+01  0.71359032593E+01 -0.11355558626E+03  0.16911269558E+03  0.12509000000E+03 0.  0.
         25    1    1    2    0    0 -0.77601706723E-02  0.54784710935E+01 -0.27609705287E+03  0.30316184524E+03  0.12509000000E+03 0.  0.
<mgrwt>
<rscale>  2 0.39539556E+03</rscale>
<asrwt>0</asrwt>
<pdfrwt beam="1">  1       21 0.82930245E-02 0.39539556E+03</pdfrwt>
<pdfrwt beam="2">  1       21 0.10192314E+00 0.39539556E+03</pdfrwt>
<totfact> 0.82766643E+04</totfact>
</mgrwt>
</event>
<event>
 6    0  0.1539497E-004  0.4389076E+03  0.7546771E-02  0.1031082E+00
         21   -1    0    0  502  501  0.00000000000E+00  0.00000000000E+00  0.85041589385E+03  0.85041589385E+03  0.00000000000E+00 0.  1.
         21   -1    0    0  501  502 -0.00000000000E+00 -0.00000000000E+00 -0.56631085436E+02  0.56631085436E+02  0.00000000000E+00 0.  1.
      99925    2    1    2    0    0  0.58810530441E+02 -0.71778597744E+02  0.43624502474E+03  0.51705588888E+03  0.26158406876E+03 0.  0.
         25    1    3    3    0    0  0.47883674055E+02 -0.11904001816E+02  0.17093651187E+03  0.21748873693E+03  0.12509000000E+03 0.  0.
         25    1    3    3    0    0  0.10926856386E+02 -0.59874595928E+02  0.26530851287E+03  0.29956715196E+03  0.12509000000E+03 0.  0.
         25    1    1    2    0    0 -0.58810530441E+02  0.71778597744E+02  0.35753978367E+03  0.38999109040E+03  0.12509000000E+03 0.  0.
<mgrwt>
<rscale>  2 0.43890762E+03</rscale>
<asrwt>0</asrwt>
<pdfrwt beam="1">  1       21 0.12506115E+00 0.43890762E+03</pdfrwt>
<pdfrwt beam="2">  1       21 0.83281013E-02 0.43890762E+03</pdfrwt>
<totfact> 0.48789869E+04</totfact>
</mgrwt>
</event>
<event>
 6    0  0.1539497E-004  0.4188414E+03  0.7546771E-02  0.1037444E+00
         21   -1    0    0  502  501  0.00000000000E+00  0.00000000000E+00  0.41546964988E+03  0.41546964988E+03  0.00000000000E+00 0.  1.
         21   -1    0    0  501  502 -0.00000000000E+00 -0.00000000000E+00 -0.10556013104E+03  0.10556013104E+03  0.00000000000E+00 0.  1.
      99925    2    1    2    0    0 -0.53552414197E+02 -0.46243516422E+02  0.17321815658E+03  0.32269077695E+03  0.26290394422E+03 0.  0.
         25    1    3    3    0    0 -0.38137508927E+02 -0.31233635535E+02  0.13404429194E+03  0.18985623476E+03  0.12509000000E+03 0.  0.
         25    1    3    3    0    0 -0.15414905270E+02 -0.15009880887E+02  0.39173864639E+02  0.13283454219E+03  0.12509000000E+03 0.  0.
         25    1    1    2    0    0  0.53552414197E+02  0.46243516422E+02  0.13669136227E+03  0.19833900397E+03  0.12509000000E+03 0.  0.
<mgrwt>
<rscale>  2 0.41884141E+03</rscale>
<asrwt>0</asrwt>
<pdfrwt beam="1">  1       21 0.61098478E-01 0.41884141E+03</pdfrwt>
<pdfrwt beam="2">  1       21 0.15523549E-01 0.41884141E+03</pdfrwt>
<totfact> 0.85897698E+04</totfact>
</mgrwt>
</event>
<event>
 6    0  0.1539497E-004  0.4934868E+03  0.7546771E-02  0.1015493E+00
         21   -1    0    0  502  501  0.00000000000E+00  0.00000000000E+00  0.83519625044E+03  0.83519625044E+03  0.00000000000E+00 0. -1.
         21   -1    0    0  501  502 -0.00000000000E+00 -0.00000000000E+00 -0.72895814843E+02  0.72895814843E+02  0.00000000000E+00 0. -1.
      99925    2    1    2    0    0  0.18092334373E+02 -0.10427188288E+03  0.65091715279E+03  0.70996659516E+03  0.26298187832E+03 0.  0.
         25    1    3    3    0    0 -0.69758529843E+01 -0.21350323422E+02  0.35795989232E+03  0.37985167032E+03  0.12509000000E+03 0.  0.
         25    1    1    2    0    0 -0.18092334373E+02  0.10427188288E+03  0.11138328280E+03  0.19812547012E+03  0.12509000000E+03 0.  0.
         25    1    3    3    0    0  0.25068187358E+02 -0.82921559456E+02  0.29295726047E+03  0.33011492484E+03  0.12509000000E+03 0.  0.
<mgrwt>
<rscale>  2 0.49348682E+03</rscale>
<asrwt>0</asrwt>
<pdfrwt beam="1">  1       21 0.12282297E+00 0.49348682E+03</pdfrwt>
<pdfrwt beam="2">  1       21 0.10719973E-01 0.49348682E+03</pdfrwt>
<totfact> 0.32072975E+04</totfact>
</mgrwt>
</event>
<event>
 6    0  0.1539497E-004  0.4745771E+03  0.7546771E-02  0.1020636E+00
         21   -1    0    0  502  501  0.00000000000E+00  0.00000000000E+00  0.34355707339E+03  0.34355707339E+03  0.00000000000E+00 0.  1.
         21   -1    0    0  501  502 -0.00000000000E+00 -0.00000000000E+00 -0.16389085172E+03  0.16389085172E+03  0.00000000000E+00 0.  1.
      99925    2    1    2    0    0  0.86148891899E+02  0.15064575003E+02  0.72946862771E+01  0.27721320290E+03  0.26295508061E+03 0.  0.
         25    1    3    3    0    0  0.63802686217E+02 -0.20731131929E+02 -0.17073865916E+02  0.14296708571E+03  0.12509000000E+03 0.  0.
         25    1    1    2    0    0 -0.86148891899E+02 -0.15064575003E+02  0.17237153540E+03  0.23023472221E+03  0.12509000000E+03 0.  0.
         25    1    3    3    0    0  0.22346205682E+02  0.35795706932E+02  0.24368552193E+02  0.13424611718E+03  0.12509000000E+03 0.  0.
<mgrwt>
<rscale>  2 0.47457712E+03</rscale>
<asrwt>0</asrwt>
<pdfrwt beam="1">  1       21 0.50523099E-01 0.47457712E+03</pdfrwt>
<pdfrwt beam="2">  1       21 0.24101596E-01 0.47457712E+03</pdfrwt>
<totfact> 0.55595098E+04</totfact>
</mgrwt>
</event>
<event>
 6    0  0.1539497E-004  0.5040895E+03  0.7546771E-02  0.1012717E+00
         21   -1    0    0  502  501  0.00000000000E+00  0.00000000000E+00  0.18145010680E+03  0.18145010680E+03  0.00000000000E+00 0. -1.
         21   -1    0    0  501  502 -0.00000000000E+00 -0.00000000000E+00 -0.35010480458E+03  0.35010480458E+03  0.00000000000E+00 0. -1.
      99925    2    1    2    0    0 -0.10274616780E+03  0.12740373672E+02  0.19113782250E+02  0.28331389480E+03  0.26302534896E+03 0.  0.
         25    1    1    2    0    0  0.10274616780E+03 -0.12740373672E+02 -0.18776848003E+03  0.24824101658E+03  0.12509000000E+03 0.  0.
         25    1    3    3    0    0 -0.92786510994E+02 -0.54362407168E+01  0.84188381818E+01  0.15606817187E+03  0.12509000000E+03 0.  0.
         25    1    3    3    0    0 -0.99596568053E+01  0.18176614389E+02  0.10694944068E+02  0.12724572293E+03  0.12509000000E+03 0.  0.
<mgrwt>
<rscale>  2 0.50408949E+03</rscale>
<asrwt>0</asrwt>
<pdfrwt beam="1">  1       21 0.26683839E-01 0.50408949E+03</pdfrwt>
<pdfrwt beam="2">  1       21 0.51486000E-01 0.50408949E+03</pdfrwt>
<totfact> 0.43516960E+04</totfact>
</mgrwt>
</event>
<event>
 6    0  0.1539497E-004  0.4613808E+03  0.7546771E-02  0.1024382E+00
         21   -1    0    0  502  501  0.00000000000E+00  0.00000000000E+00  0.18180892335E+03  0.18180892335E+03  0.00000000000E+00 0. -1.
         21   -1    0    0  501  502 -0.00000000000E+00 -0.00000000000E+00 -0.29271427837E+03  0.29271427837E+03  0.00000000000E+00 0. -1.
      99925    2    1    2    0    0 -0.24441548979E+02  0.11526883498E+03 -0.85806774987E+02  0.30085184412E+03  0.26318194437E+03 0.  0.
         25    1    1    2    0    0  0.24441548979E+02 -0.11526883498E+03 -0.25098580034E+02  0.17367135761E+03  0.12509000000E+03 0.  0.
         25    1    3    3    0    0 -0.37360893690E+02  0.79358491532E+02 -0.73362085181E+02  0.16947893733E+03  0.12509000000E+03 0.  0.
         25    1    3    3    0    0  0.12919344711E+02  0.35910343446E+02 -0.12444689805E+02  0.13137290679E+03  0.12509000000E+03 0.  0.
<mgrwt>
<rscale>  2 0.46138083E+03</rscale>
<asrwt>0</asrwt>
<pdfrwt beam="1">  1       21 0.26736607E-01 0.46138083E+03</pdfrwt>
<pdfrwt beam="2">  1       21 0.43046217E-01 0.46138083E+03</pdfrwt>
<totfact> 0.63809170E+04</totfact>
</mgrwt>
</event>
<event>
 6    0  0.1539497E-004  0.4455752E+03  0.7546771E-02  0.1029050E+00
         21   -1    0    0  502  501  0.00000000000E+00  0.00000000000E+00  0.39535328258E+02  0.39535328258E+02  0.00000000000E+00 0. -1.
         21   -1    0    0  501  502 -0.00000000000E+00 -0.00000000000E+00 -0.12554418937E+04  0.12554418937E+04  0.00000000000E+00 0. -1.
      99925    2    1    2    0    0 -0.81764958098E+02  0.51627147422E+02 -0.88325709651E+03  0.92666478936E+03  0.26308489615E+03 0.  0.
         25    1    1    2    0    0  0.81764958098E+02 -0.51627147422E+02 -0.33264946892E+03  0.36831243259E+03  0.12509000000E+03 0.  0.
         25    1    3    3    0    0 -0.32575375567E+02  0.40637720641E+02 -0.32035137985E+03  0.34782911624E+03  0.12509000000E+03 0.  0.
         25    1    3    3    0    0 -0.49189582532E+02  0.10989426781E+02 -0.56290571666E+03  0.57883567312E+03  0.12509000000E+03 0.  0.
<mgrwt>
<rscale>  2 0.44557517E+03</rscale>
<asrwt>0</asrwt>
<pdfrwt beam="1">  1       21 0.58140184E-02 0.44557517E+03</pdfrwt>
<pdfrwt beam="2">  1       21 0.18462382E+00 0.44557517E+03</pdfrwt>
<totfact> 0.31507933E+04</totfact>
</mgrwt>
</event>
<event>
 6    0  0.1539497E-004  0.4177054E+03  0.7546771E-02  0.1037816E+00
         21   -1    0    0  502  501  0.00000000000E+00  0.00000000000E+00  0.82941338597E+02  0.82941338597E+02  0.00000000000E+00 0. -1.
         21   -1    0    0  501  502 -0.00000000000E+00 -0.00000000000E+00 -0.52590726861E+03  0.52590726861E+03  0.00000000000E+00 0. -1.
      99925    2    1    2    0    0  0.45615685796E+02 -0.52995591784E+02 -0.25943659769E+03  0.37599705050E+03  0.26301541822E+03 0.  0.
         25    1    3    3    0    0  0.96551128125E+01  0.11434219082E+02 -0.10501051069E+03  0.16400816451E+03  0.12509000000E+03 0.  0.
         25    1    3    3    0    0  0.35960572984E+02 -0.64429810866E+02 -0.15442608700E+03  0.21198888599E+03  0.12509000000E+03 0.  0.
         25    1    1    2    0    0 -0.45615685796E+02  0.52995591784E+02 -0.18352933231E+03  0.23285155670E+03  0.12509000000E+03 0.  0.
<mgrwt>
<rscale>  2 0.41770541E+03</rscale>
<asrwt>0</asrwt>
<pdfrwt beam="1">  1       21 0.12197255E-01 0.41770541E+03</pdfrwt>
<pdfrwt beam="2">  1       21 0.77339306E-01 0.41770541E+03</pdfrwt>
<totfact> 0.78938350E+04</totfact>
</mgrwt>
</event>
<event>
 6    0  0.1539497E-004  0.4669971E+03  0.7546771E-02  0.1022771E+00
         21   -1    0    0  502  501  0.00000000000E+00  0.00000000000E+00  0.12966655505E+04  0.12966655505E+04  0.00000000000E+00 0.  1.
         21   -1    0    0  501  502 -0.00000000000E+00 -0.00000000000E+00 -0.42047529368E+02  0.42047529368E+02  0.00000000000E+00 0.  1.
      99925    2    1    2    0    0  0.98619032519E+02 -0.32193047843E+02  0.97691013821E+03  0.10169503066E+04  0.26281628969E+03 0.  0.
         25    1    3    3    0    0  0.30765205415E+02 -0.78400428268E+01  0.59075900043E+03  0.60469138312E+03  0.12509000000E+03 0.  0.
         25    1    3    3    0    0  0.67853827104E+02 -0.24353005016E+02  0.38615113778E+03  0.41225892351E+03  0.12509000000E+03 0.  0.
         25    1    1    2    0    0 -0.98619032519E+02  0.32193047843E+02  0.27770788297E+03  0.32176277327E+03  0.12509000000E+03 0.  0.
<mgrwt>
<rscale>  2 0.46699714E+03</rscale>
<asrwt>0</asrwt>
<pdfrwt beam="1">  1       21 0.19068608E+00 0.46699714E+03</pdfrwt>
<pdfrwt beam="2">  1       21 0.61834610E-02 0.46699714E+03</pdfrwt>
<totfact> 0.25543568E+04</totfact>
</mgrwt>
</event>
<event>
 6    0  0.1539497E-004  0.4459031E+03  0.7546771E-02  0.1028951E+00
         21   -1    0    0  502  501  0.00000000000E+00  0.00000000000E+00  0.44952674821E+02  0.44952674821E+02  0.00000000000E+00 0. -1.
         21   -1    0    0  501  502 -0.00000000000E+00 -0.00000000000E+00 -0.11057714979E+04  0.11057714979E+04  0.00000000000E+00 0. -1.
      99925    2    1    2    0    0 -0.32735214490E+02 -0.98554904573E+02 -0.70729209844E+03  0.76160553193E+03  0.26267129698E+03 0.  0.
         25    1    3    3    0    0 -0.27180565159E+02 -0.66627113191E+02 -0.27710858395E+03  0.31243340208E+03  0.12509000000E+03 0.  0.
         25    1    1    2    0    0  0.32735214490E+02  0.98554904573E+02 -0.35352672463E+03  0.38911864080E+03  0.12509000000E+03 0.  0.
         25    1    3    3    0    0 -0.55546493308E+01 -0.31927791382E+02 -0.43018351449E+03  0.44917212985E+03  0.12509000000E+03 0.  0.
<mgrwt>
<rscale>  2 0.44590307E+03</rscale>
<asrwt>0</asrwt>
<pdfrwt beam="1">  1       21 0.66106864E-02 0.44590307E+03</pdfrwt>
<pdfrwt beam="2">  1       21 0.16261348E+00 0.44590307E+03</pdfrwt>
<totfact> 0.36261652E+04</totfact>
</mgrwt>
</event>
<event>
 6    0  0.1539497E-004  0.4136375E+03  0.7546771E-02  0.1039157E+00
         21   -1    0    0  502  501  0.00000000000E+00  0.00000000000E+00  0.60328682178E+02  0.60328682178E+02  0.00000000000E+00 0. -1.
         21   -1    0    0  501  502 -0.00000000000E+00 -0.00000000000E+00 -0.70901596677E+03  0.70901596677E+03  0.00000000000E+00 0. -1.
      99925    2    1    2    0    0  0.38933141635E+02  0.56143931692E+02 -0.40804078038E+03  0.48965521641E+03  0.26191033184E+03 0.  0.
         25    1    1    2    0    0 -0.38933141635E+02 -0.56143931692E+02 -0.24064650421E+03  0.27968943254E+03  0.12509000000E+03 0.  0.
         25    1    3    3    0    0  0.13184290390E+02  0.66667117562E+02 -0.20602599599E+03  0.25042473760E+03  0.12509000000E+03 0.  0.
         25    1    3    3    0    0  0.25748851245E+02 -0.10523185871E+02 -0.20201478438E+03  0.23923047881E+03  0.12509000000E+03 0.  0.
<mgrwt>
<rscale>  2 0.41363752E+03</rscale>
<asrwt>0</asrwt>
<pdfrwt beam="1">  1       21 0.88718648E-02 0.41363752E+03</pdfrwt>
<pdfrwt beam="2">  1       21 0.10426706E+00 0.41363752E+03</pdfrwt>
<totfact> 0.69149968E+04</totfact>
</mgrwt>
</event>
<event>
 6    0  0.1539497E-004  0.4403781E+03  0.7546771E-02  0.1030631E+00
         21   -1    0    0  502  501  0.00000000000E+00  0.00000000000E+00  0.24615345763E+02  0.24615345763E+02  0.00000000000E+00 0.  1.
         21   -1    0    0  501  502 -0.00000000000E+00 -0.00000000000E+00 -0.19696336014E+04  0.19696336014E+04  0.00000000000E+00 0.  1.
      99925    2    1    2    0    0 -0.93577049759E+02  0.29784815123E+02 -0.13002505910E+04  0.13301581033E+04  0.26272643739E+03 0.  0.
         25    1    3    3    0    0 -0.76889635663E+02 -0.11445443986E+02 -0.64651541895E+03  0.66307820753E+03  0.12509000000E+03 0.  0.
         25    1    3    3    0    0 -0.16687414096E+02  0.41230259108E+02 -0.65373517204E+03  0.66707989575E+03  0.12509000000E+03 0.  0.
         25    1    1    2    0    0  0.93577049759E+02 -0.29784815123E+02 -0.64476766468E+03  0.66409084391E+03  0.12509000000E+03 0.  0.
<mgrwt>
<rscale>  2 0.44037807E+03</rscale>
<asrwt>0</asrwt>
<pdfrwt beam="1">  1       21 0.36199019E-02 0.44037807E+03</pdfrwt>
<pdfrwt beam="2">  1       21 0.28965215E+00 0.44037807E+03</pdfrwt>
<totfact> 0.15488596E+04</totfact>
</mgrwt>
</event>
<event>
 6    0  0.1539497E-004  0.4484650E+03  0.7546771E-02  0.1028181E+00
         21   -1    0    0  502  501  0.00000000000E+00  0.00000000000E+00  0.17794130061E+03  0.17794130061E+03  0.00000000000E+00 0.  1.
         21   -1    0    0  501  502 -0.00000000000E+00 -0.00000000000E+00 -0.28256626717E+03  0.28256626717E+03  0.00000000000E+00 0.  1.
      99925    2    1    2    0    0  0.83575474554E+02 -0.66570635498E+02 -0.60871165972E+02  0.29027709864E+03  0.26294293238E+03 0.  0.
         25    1    3    3    0    0  0.19500287135E+02 -0.30686248217E+02 -0.64106861854E+02  0.14518644863E+03  0.12509000000E+03 0.  0.
         25    1    3    3    0    0  0.64075187419E+02 -0.35884387280E+02  0.32356958819E+01  0.14509065001E+03  0.12509000000E+03 0.  0.
         25    1    1    2    0    0 -0.83575474554E+02  0.66570635498E+02 -0.43753800583E+02  0.17023046914E+03  0.12509000000E+03 0.  0.
<mgrwt>
<rscale>  2 0.44846498E+03</rscale>
<asrwt>0</asrwt>
<pdfrwt beam="1">  1       21 0.26167839E-01 0.44846498E+03</pdfrwt>
<pdfrwt beam="2">  1       21 0.41553862E-01 0.44846498E+03</pdfrwt>
<totfact> 0.71798737E+04</totfact>
</mgrwt>
</event>
<event>
 6    0  0.1539497E-004  0.3935778E+03  0.7546771E-02  0.1046026E+00
         21   -1    0    0  502  501  0.00000000000E+00  0.00000000000E+00  0.12475400229E+04  0.12475400229E+04  0.00000000000E+00 0. -1.
         21   -1    0    0  501  502 -0.00000000000E+00 -0.00000000000E+00 -0.31041781638E+02  0.31041781638E+02  0.00000000000E+00 0. -1.
      99925    2    1    2    0    0 -0.18916709571E+02  0.12624961959E+02  0.88541361149E+03  0.92392454501E+03  0.26298682457E+03 0.  0.
         25    1    3    3    0    0  0.98392270537E+01  0.39904163496E+02  0.48520442217E+03  0.50275241625E+03  0.12509000000E+03 0.  0.
         25    1    1    2    0    0  0.18916709571E+02 -0.12624961959E+02  0.33108462981E+03  0.35465725957E+03  0.12509000000E+03 0.  0.
         25    1    3    3    0    0 -0.28755936624E+02 -0.27279201537E+02  0.40020918932E+03  0.42117212876E+03  0.12509000000E+03 0.  0.
<mgrwt>
<rscale>  2 0.39357777E+03</rscale>
<asrwt>0</asrwt>
<pdfrwt beam="1">  1       21 0.18346174E+00 0.39357777E+03</pdfrwt>
<pdfrwt beam="2">  1       21 0.45649687E-02 0.39357777E+03</pdfrwt>
<totfact> 0.49504690E+04</totfact>
</mgrwt>
</event>
<event>
 6    0  0.1539497E-004  0.5230127E+03  0.7546771E-02  0.1007941E+00
         21   -1    0    0  502  501  0.00000000000E+00  0.00000000000E+00  0.83190054099E+03  0.83190054099E+03  0.00000000000E+00 0.  1.
         21   -1    0    0  501  502 -0.00000000000E+00 -0.00000000000E+00 -0.82204027756E+02  0.82204027756E+02  0.00000000000E+00 0.  1.
      99925    2    1    2    0    0  0.11214604997E+03  0.66708479410E+02  0.63619790356E+03  0.70066558391E+03  0.26297857372E+03 0.  0.
         25    1    3    3    0    0  0.16807792531E+02  0.13319039046E+02  0.29721352709E+03  0.32317686718E+03  0.12509000000E+03 0.  0.
         25    1    3    3    0    0  0.95338257437E+02  0.53389440364E+02  0.33898437647E+03  0.37748871673E+03  0.12509000000E+03 0.  0.
         25    1    1    2    0    0 -0.11214604997E+03 -0.66708479410E+02  0.11349860967E+03  0.21343898483E+03  0.12509000000E+03 0.  0.
<mgrwt>
<rscale>  2 0.52301272E+03</rscale>
<asrwt>0</asrwt>
<pdfrwt beam="1">  1       21 0.12233831E+00 0.52301272E+03</pdfrwt>
<pdfrwt beam="2">  1       21 0.12088828E-01 0.52301272E+03</pdfrwt>
<totfact> 0.25861137E+04</totfact>
</mgrwt>
</event>
<event>
 6    0  0.1539497E-004  0.4647186E+03  0.7546771E-02  0.1023422E+00
         21   -1    0    0  502  501  0.00000000000E+00  0.00000000000E+00  0.54815852240E+03  0.54815852240E+03  0.00000000000E+00 0.  1.
         21   -1    0    0  501  502 -0.00000000000E+00 -0.00000000000E+00 -0.98494956226E+02  0.98494956226E+02  0.00000000000E+00 0.  1.
      99925    2    1    2    0    0 -0.34049513127E+02 -0.93865723451E+02  0.37876375494E+03  0.47159795967E+03  0.26262617944E+03 0.  0.
         25    1    3    3    0    0  0.18869570250E+02 -0.35644697100E+02  0.20474642371E+03  0.24330066016E+03  0.12509000000E+03 0.  0.
         25    1    1    2    0    0  0.34049513127E+02  0.93865723451E+02  0.70899811230E+02  0.17505551895E+03  0.12509000000E+03 0.  0.
         25    1    3    3    0    0 -0.52919083377E+02 -0.58221026351E+02  0.17401733123E+03  0.22829729951E+03  0.12509000000E+03 0.  0.
<mgrwt>
<rscale>  2 0.46471862E+03</rscale>
<asrwt>0</asrwt>
<pdfrwt beam="1">  1       21 0.80611546E-01 0.46471862E+03</pdfrwt>
<pdfrwt beam="2">  1       21 0.14484553E-01 0.46471862E+03</pdfrwt>
<totfact> 0.51806188E+04</totfact>
</mgrwt>
</event>
<event>
 6    0  0.1539497E-004  0.4752341E+03  0.7546771E-02  0.1020453E+00
         21   -1    0    0  502  501  0.00000000000E+00  0.00000000000E+00  0.22856207510E+03  0.22856207510E+03  0.00000000000E+00 0. -1.
         21   -1    0    0  501  502 -0.00000000000E+00 -0.00000000000E+00 -0.24703073727E+03  0.24703073727E+03  0.00000000000E+00 0. -1.
      99925    2    1    2    0    0 -0.92063037728E+02 -0.32851436998E+02 -0.99035731504E+02  0.29756646435E+03  0.26302643358E+03 0.  0.
         25    1    3    3    0    0 -0.41362717868E+02  0.12951821790E+02 -0.17993181135E+02  0.13360346846E+03  0.12509000000E+03 0.  0.
         25    1    3    3    0    0 -0.50700319860E+02 -0.45803258788E+02 -0.81042550369E+02  0.16396299589E+03  0.12509000000E+03 0.  0.
         25    1    1    2    0    0  0.92063037728E+02  0.32851436998E+02  0.80567069339E+02  0.17802634802E+03  0.12509000000E+03 0.  0.
<mgrwt>
<rscale>  2 0.47523408E+03</rscale>
<asrwt>0</asrwt>
<pdfrwt beam="1">  1       21 0.33612070E-01 0.47523408E+03</pdfrwt>
<pdfrwt beam="2">  1       21 0.36328050E-01 0.47523408E+03</pdfrwt>
<totfact> 0.57247052E+04</totfact>
</mgrwt>
</event>
<event>
 6    0  0.1539497E-004  0.4839770E+03  0.7546771E-02  0.1018048E+00
         21   -1    0    0  502  501  0.00000000000E+00  0.00000000000E+00  0.21306728691E+02  0.21306728691E+02  0.00000000000E+00 0. -1.
         21   -1    0    0  501  502 -0.00000000000E+00 -0.00000000000E+00 -0.27483535755E+04  0.27483535755E+04  0.00000000000E+00 0. -1.
      99925    2    1    2    0    0  0.80450580018E+02 -0.44175993447E+02 -0.22690970882E+04  0.22861426688E+04  0.26310243678E+03 0.  0.
         25    1    3    3    0    0  0.41159823674E+02  0.43693466140E+01 -0.84670602283E+03  0.85689662122E+03  0.12509000000E+03 0.  0.
         25    1    1    2    0    0 -0.80450580018E+02  0.44175993447E+02 -0.45794975869E+03  0.48351763547E+03  0.12509000000E+03 0.  0.
         25    1    3    3    0    0  0.39290756344E+02 -0.48545340061E+02 -0.14223910653E+04  0.14292460475E+04  0.12509000000E+03 0.  0.
<mgrwt>
<rscale>  2 0.48397696E+03</rscale>
<asrwt>0</asrwt>
<pdfrwt beam="1">  1       21 0.31333415E-02 0.48397696E+03</pdfrwt>
<pdfrwt beam="2">  1       21 0.40416977E+00 0.48397696E+03</pdfrwt>
<totfact> 0.38131717E+03</totfact>
</mgrwt>
</event>
<event>
 6    0  0.1539497E-004  0.4016462E+03  0.7546771E-02  0.1043211E+00
         21   -1    0    0  502  501  0.00000000000E+00  0.00000000000E+00  0.45033416731E+02  0.45033416731E+02  0.00000000000E+00 0. -1.
         21   -1    0    0  501  502 -0.00000000000E+00 -0.00000000000E+00 -0.89555531113E+03  0.89555531113E+03  0.00000000000E+00 0. -1.
      99925    2    1    2    0    0 -0.47742412227E+02 -0.61475409940E+01 -0.56545687864E+03  0.62558602709E+03  0.26324753655E+03 0.  0.
         25    1    3    3    0    0 -0.66561848707E+01  0.23978406194E+02 -0.21474481102E+03  0.24976411016E+03  0.12509000000E+03 0.  0.
         25    1    1    2    0    0  0.47742412227E+02  0.61475409940E+01 -0.28506501575E+03  0.31500270077E+03  0.12509000000E+03 0.  0.
         25    1    3    3    0    0 -0.41086227356E+02 -0.30125947188E+02 -0.35071206762E+03  0.37582191693E+03  0.12509000000E+03 0.  0.
<mgrwt>
<rscale>  2 0.40164619E+03</rscale>
<asrwt>0</asrwt>
<pdfrwt beam="1">  1       21 0.66225613E-02 0.40164619E+03</pdfrwt>
<pdfrwt beam="2">  1       21 0.13169931E+00 0.40164619E+03</pdfrwt>
<totfact> 0.64532443E+04</totfact>
</mgrwt>
</event>
<event>
 6    0  0.1539497E-004  0.4135278E+03  0.7546771E-02  0.1039194E+00
         21   -1    0    0  502  501  0.00000000000E+00  0.00000000000E+00  0.70092010376E+02  0.70092010376E+02  0.00000000000E+00 0. -1.
         21   -1    0    0  501  502 -0.00000000000E+00 -0.00000000000E+00 -0.60993133367E+03  0.60993133367E+03  0.00000000000E+00 0. -1.
      99925    2    1    2    0    0  0.11498524335E+02  0.53744298921E+02 -0.41836593289E+03  0.49720113969E+03  0.26297956913E+03 0.  0.
         25    1    1    2    0    0 -0.11498524335E+02 -0.53744298921E+02 -0.12147339040E+03  0.18282220435E+03  0.12509000000E+03 0.  0.
         25    1    3    3    0    0  0.81050761425E+01  0.28482715426E+02 -0.28465260913E+03  0.31233247241E+03  0.12509000000E+03 0.  0.
         25    1    3    3    0    0  0.33934481926E+01  0.25261583496E+02 -0.13371332376E+03  0.18486866728E+03  0.12509000000E+03 0.  0.
<mgrwt>
<rscale>  2 0.41352781E+03</rscale>
<asrwt>0</asrwt>
<pdfrwt beam="1">  1       21 0.10307648E-01 0.41352781E+03</pdfrwt>
<pdfrwt beam="2">  1       21 0.89695787E-01 0.41352781E+03</pdfrwt>
<totfact> 0.75918323E+04</totfact>
</mgrwt>
</event>
<event>
 6    0  0.1539497E-004  0.4698186E+03  0.7546771E-02  0.1021971E+00
         21   -1    0    0  502  501  0.00000000000E+00  0.00000000000E+00  0.61183892304E+02  0.61183892304E+02  0.00000000000E+00 0. -1.
         21   -1    0    0  501  502 -0.00000000000E+00 -0.00000000000E+00 -0.90191007436E+03  0.90191007436E+03  0.00000000000E+00 0. -1.
      99925    2    1    2    0    0  0.55353197863E+01  0.11668362905E+03 -0.42292066216E+03  0.51159128715E+03  0.26309323357E+03 0.  0.
         25    1    3    3    0    0  0.36419817163E+02  0.34063383293E+02 -0.20582576525E+03  0.24596436917E+03  0.12509000000E+03 0.  0.
         25    1    3    3    0    0 -0.30884497376E+02  0.82620245757E+02 -0.21709489692E+03  0.26562691798E+03  0.12509000000E+03 0.  0.
         25    1    1    2    0    0 -0.55353197863E+01 -0.11668362905E+03 -0.41780551989E+03  0.45150267951E+03  0.12509000000E+03 0.  0.
<mgrwt>
<rscale>  2 0.46981856E+03</rscale>
<asrwt>0</asrwt>
<pdfrwt beam="1">  1       21 0.89976323E-02 0.46981856E+03</pdfrwt>
<pdfrwt beam="2">  1       21 0.13263382E+00 0.46981856E+03</pdfrwt>
<totfact> 0.36231001E+04</totfact>
</mgrwt>
</event>
<event>
 6    0  0.1539497E-004  0.4274863E+03  0.7546771E-02  0.1034657E+00
         21   -1    0    0  502  501  0.00000000000E+00  0.00000000000E+00  0.47524636402E+02  0.47524636402E+02  0.00000000000E+00 0. -1.
         21   -1    0    0  501  502 -0.00000000000E+00 -0.00000000000E+00 -0.96131465460E+03  0.96131465460E+03  0.00000000000E+00 0. -1.
      99925    2    1    2    0    0 -0.42143443811E+02  0.68067412621E+02 -0.52498972755E+03  0.59263931909E+03  0.26305494858E+03 0.  0.
         25    1    3    3    0    0 -0.90635675110E+01  0.66949946219E+02 -0.32096921003E+03  0.35104584521E+03  0.12509000000E+03 0.  0.
         25    1    1    2    0    0  0.42143443811E+02 -0.68067412621E+02 -0.38880029064E+03  0.41619997191E+03  0.12509000000E+03 0.  0.
         25    1    3    3    0    0 -0.33079876300E+02  0.11174664021E+01 -0.20402051752E+03  0.24159347387E+03  0.12509000000E+03 0.  0.
<mgrwt>
<rscale>  2 0.42748628E+03</rscale>
<asrwt>0</asrwt>
<pdfrwt beam="1">  1       21 0.69889170E-02 0.42748628E+03</pdfrwt>
<pdfrwt beam="2">  1       21 0.14136981E+00 0.42748628E+03</pdfrwt>
<totfact> 0.48421093E+04</totfact>
</mgrwt>
</event>
<event>
 6    0  0.1539497E-004  0.3941255E+03  0.7546771E-02  0.1045833E+00
         21   -1    0    0  502  501  0.00000000000E+00  0.00000000000E+00  0.11830525237E+04  0.11830525237E+04  0.00000000000E+00 0.  1.
         21   -1    0    0  501  502 -0.00000000000E+00 -0.00000000000E+00 -0.32825025842E+02  0.32825025842E+02  0.00000000000E+00 0.  1.
      99925    2    1    2    0    0  0.29572106457E+02  0.64121323164E+01  0.75550113967E+03  0.80070044171E+03  0.26348358657E+03 0.  0.
         25    1    3    3    0    0  0.48116004189E+02  0.27640868307E+02  0.37686086568E+03  0.40093738619E+03  0.12509000000E+03 0.  0.
         25    1    1    2    0    0 -0.29572106457E+02 -0.64121323164E+01  0.39472635820E+03  0.41517710785E+03  0.12509000000E+03 0.  0.
         25    1    3    3    0    0 -0.18543897732E+02 -0.21228735990E+02  0.37864027399E+03  0.39976305553E+03  0.12509000000E+03 0.  0.
<mgrwt>
<rscale>  2 0.39412551E+03</rscale>
<asrwt>0</asrwt>
<pdfrwt beam="1">  1       21 0.17397828E+00 0.39412551E+03</pdfrwt>
<pdfrwt beam="2">  1       21 0.48272105E-02 0.39412551E+03</pdfrwt>
<totfact> 0.52453458E+04</totfact>
</mgrwt>
</event>
<event>
 6    0  0.1539497E-004  0.4123714E+03  0.7546771E-02  0.1039578E+00
         21   -1    0    0  502  501  0.00000000000E+00  0.00000000000E+00  0.11230442704E+02  0.11230442704E+02  0.00000000000E+00 0. -1.
         21   -1    0    0  501  502 -0.00000000000E+00 -0.00000000000E+00 -0.37854740825E+04  0.37854740825E+04  0.00000000000E+00 0. -1.
      99925    2    1    2    0    0 -0.17118416621E+02  0.55696518521E+02 -0.22058695848E+04  0.22222713488E+04  0.26312388783E+03 0.  0.
         25    1    1    2    0    0  0.17118416621E+02 -0.55696518521E+02 -0.15683740550E+04  0.15744331764E+04  0.12509000000E+03 0.  0.
         25    1    3    3    0    0  0.17916221817E+02  0.34170214459E+02 -0.84971610937E+03  0.85974040802E+03  0.12509000000E+03 0.  0.
         25    1    3    3    0    0 -0.35034638439E+02  0.21526304062E+02 -0.13561534754E+04  0.13625309408E+04  0.12509000000E+03 0.  0.
<mgrwt>
<rscale>  2 0.41237143E+03</rscale>
<asrwt>0</asrwt>
<pdfrwt beam="1">  1       21 0.16515367E-02 0.41237143E+03</pdfrwt>
<pdfrwt beam="2">  1       21 0.55668702E+00 0.41237143E+03</pdfrwt>
<totfact> 0.98961061E+02</totfact>
</mgrwt>
</event>
<event>
 6    0  0.1539497E-004  0.4132223E+03  0.7546771E-02  0.1039295E+00
         21   -1    0    0  502  501  0.00000000000E+00  0.00000000000E+00  0.74678559454E+02  0.74678559454E+02  0.00000000000E+00 0.  1.
         21   -1    0    0  501  502 -0.00000000000E+00 -0.00000000000E+00 -0.57162547945E+03  0.57162547945E+03  0.00000000000E+00 0.  1.
      99925    2    1    2    0    0  0.34716197302E+02  0.18827782399E+02 -0.24191417269E+03  0.35951333117E+03  0.26299746880E+03 0.  0.
         25    1    3    3    0    0  0.29710493329E+02  0.27885323367E+02 -0.16963829204E+03  0.21467408530E+03  0.12509000000E+03 0.  0.
         25    1    1    2    0    0 -0.34716197302E+02 -0.18827782399E+02 -0.25503274731E+03  0.28679070774E+03  0.12509000000E+03 0.  0.
         25    1    3    3    0    0  0.50057039732E+01 -0.90575409673E+01 -0.72275880654E+02  0.14483924587E+03  0.12509000000E+03 0.  0.
<mgrwt>
<rscale>  2 0.41322230E+03</rscale>
<asrwt>0</asrwt>
<pdfrwt beam="1">  1       21 0.10982141E-01 0.41322230E+03</pdfrwt>
<pdfrwt beam="2">  1       21 0.84062571E-01 0.41322230E+03</pdfrwt>
<totfact> 0.78849170E+04</totfact>
</mgrwt>
</event>
<event>
 6    0  0.1539497E-004  0.3890075E+03  0.7546771E-02  0.1047654E+00
         21   -1    0    0  502  501  0.00000000000E+00  0.00000000000E+00  0.20286282064E+03  0.20286282064E+03  0.00000000000E+00 0.  1.
         21   -1    0    0  501  502 -0.00000000000E+00 -0.00000000000E+00 -0.18648914785E+03  0.18648914785E+03  0.00000000000E+00 0.  1.
      99925    2    1    2    0    0 -0.10016193327E+02 -0.30799670465E+01  0.56024661422E+01  0.26336253513E+03  0.26309433091E+03 0.  0.
         25    1    1    2    0    0  0.10016193327E+02  0.30799670465E+01  0.10771206645E+02  0.12598943336E+03  0.12509000000E+03 0.  0.
         25    1    3    3    0    0 -0.30749385286E+02  0.13575990958E+02  0.30513666067E+02  0.13307300306E+03  0.12509000000E+03 0.  0.
         25    1    3    3    0    0  0.20733191959E+02 -0.16655958005E+02 -0.24911199925E+02  0.13028953207E+03  0.12509000000E+03 0.  0.
<mgrwt>
<rscale>  2 0.38900753E+03</rscale>
<asrwt>0</asrwt>
<pdfrwt beam="1">  1       21 0.29832768E-01 0.38900753E+03</pdfrwt>
<pdfrwt beam="2">  1       21 0.27424875E-01 0.38900753E+03</pdfrwt>
<totfact> 0.12958028E+05</totfact>
</mgrwt>
</event>
<event>
 6    0  0.1539497E-004  0.3954203E+03  0.7546771E-02  0.1045377E+00
         21   -1    0    0  502  501  0.00000000000E+00  0.00000000000E+00  0.69548235126E+02  0.69548235126E+02  0.00000000000E+00 0. -1.
         21   -1    0    0  501  502 -0.00000000000E+00 -0.00000000000E+00 -0.56204596801E+03  0.56204596801E+03  0.00000000000E+00 0. -1.
      99925    2    1    2    0    0  0.53664836802E+01 -0.31643665949E+02 -0.30699330524E+03  0.40556429026E+03  0.26307296198E+03 0.  0.
         25    1    3    3    0    0  0.19806386515E+02  0.11746291407E+02 -0.11229589693E+03  0.16967069540E+03  0.12509000000E+03 0.  0.
         25    1    1    2    0    0 -0.53664836802E+01  0.31643665949E+02 -0.18550442765E+03  0.22602991288E+03  0.12509000000E+03 0.  0.
         25    1    3    3    0    0 -0.14439902834E+02 -0.43389957357E+02 -0.19469740831E+03  0.23589359486E+03  0.12509000000E+03 0.  0.
<mgrwt>
<rscale>  2 0.39542031E+03</rscale>
<asrwt>0</asrwt>
<pdfrwt beam="1">  1       21 0.10227681E-01 0.39542031E+03</pdfrwt>
<pdfrwt beam="2">  1       21 0.82653823E-01 0.39542031E+03</pdfrwt>
<totfact> 0.93601666E+04</totfact>
</mgrwt>
</event>
<event>
 6    0  0.1539497E-004  0.4239044E+03  0.7546771E-02  0.1035803E+00
         21   -1    0    0  502  501  0.00000000000E+00  0.00000000000E+00  0.18757225128E+03  0.18757225128E+03  0.00000000000E+00 0.  1.
         21   -1    0    0  501  502 -0.00000000000E+00 -0.00000000000E+00 -0.23950097466E+03  0.23950097466E+03  0.00000000000E+00 0.  1.
      99925    2    1    2    0    0  0.56390231975E+02 -0.25227569085E+02  0.18488573986E+02  0.27079657263E+03  0.26300697305E+03 0.  0.
         25    1    1    2    0    0 -0.56390231975E+02  0.25227569085E+02 -0.70417297365E+02  0.15627665332E+03  0.12509000000E+03 0.  0.
         25    1    3    3    0    0  0.18989839553E+02 -0.29289599578E+02  0.45121731398E+02  0.13748444783E+03  0.12509000000E+03 0.  0.
         25    1    3    3    0    0  0.37400392422E+02  0.40620304934E+01 -0.26633157412E+02  0.13331212480E+03  0.12509000000E+03 0.  0.
<mgrwt>
<rscale>  2 0.42390441E+03</rscale>
<asrwt>0</asrwt>
<pdfrwt beam="1">  1       21 0.27584155E-01 0.42390441E+03</pdfrwt>
<pdfrwt beam="2">  1       21 0.35220731E-01 0.42390441E+03</pdfrwt>
<totfact> 0.91268734E+04</totfact>
</mgrwt>
</event>
<event>
 6    0  0.1539497E-004  0.4309930E+03  0.7546771E-02  0.1033547E+00
         21   -1    0    0  502  501  0.00000000000E+00  0.00000000000E+00  0.30787699280E+02  0.30787699280E+02  0.00000000000E+00 0.  1.
         21   -1    0    0  501  502 -0.00000000000E+00 -0.00000000000E+00 -0.15083534663E+04  0.15083534663E+04  0.00000000000E+00 0.  1.
      99925    2    1    2    0    0 -0.57274625716E+02 -0.80811522453E+01 -0.11920381596E+04  0.12220935186E+04  0.26308155849E+03 0.  0.
         25    1    3    3    0    0 -0.38312184325E+02 -0.26076105376E+02 -0.45869472146E+03  0.47769879876E+03  0.12509000000E+03 0.  0.
         25    1    3    3    0    0 -0.18962441391E+02  0.17994953131E+02 -0.73334343814E+03  0.74439471981E+03  0.12509000000E+03 0.  0.
         25    1    1    2    0    0  0.57274625716E+02  0.80811522453E+01 -0.28552760738E+03  0.31704764697E+03  0.12509000000E+03 0.  0.
<mgrwt>
<rscale>  2 0.43099296E+03</rscale>
<asrwt>0</asrwt>
<pdfrwt beam="1">  1       21 0.45276013E-02 0.43099296E+03</pdfrwt>
<pdfrwt beam="2">  1       21 0.22181676E+00 0.43099296E+03</pdfrwt>
<totfact> 0.27641957E+04</totfact>
</mgrwt>
</event>
<event>
 6    0  0.1539497E-004  0.4489086E+03  0.7546771E-02  0.1028048E+00
         21   -1    0    0  502  501  0.00000000000E+00  0.00000000000E+00  0.11739751467E+03  0.11739751467E+03  0.00000000000E+00 0. -1.
         21   -1    0    0  501  502 -0.00000000000E+00 -0.00000000000E+00 -0.42913794464E+03  0.42913794464E+03  0.00000000000E+00 0. -1.
      99925    2    1    2    0    0  0.41678238326E+02  0.77849486046E+02 -0.27158507151E+03  0.38823960043E+03  0.26300935012E+03 0.  0.
         25    1    1    2    0    0 -0.41678238326E+02 -0.77849486046E+02 -0.40155358458E+02  0.15829585889E+03  0.12509000000E+03 0.  0.
         25    1    3    3    0    0  0.33675063378E+02  0.20475382132E+02 -0.18009617359E+03  0.22279001551E+03  0.12509000000E+03 0.  0.
         25    1    3    3    0    0  0.80031749481E+01  0.57374103914E+02 -0.91488897914E+02  0.16544958492E+03  0.12509000000E+03 0.  0.
<mgrwt>
<rscale>  2 0.44890858E+03</rscale>
<asrwt>0</asrwt>
<pdfrwt beam="1">  1       21 0.17264340E-01 0.44890858E+03</pdfrwt>
<pdfrwt beam="2">  1       21 0.63108522E-01 0.44890858E+03</pdfrwt>
<totfact> 0.65181321E+04</totfact>
</mgrwt>
</event>
<event>
 6    0  0.1539497E-004  0.4109656E+03  0.7546771E-02  0.1040047E+00
         21   -1    0    0  502  501  0.00000000000E+00  0.00000000000E+00  0.12301425327E+03  0.12301425327E+03  0.00000000000E+00 0. -1.
         21   -1    0    0  501  502 -0.00000000000E+00 -0.00000000000E+00 -0.34323816805E+03  0.34323816805E+03  0.00000000000E+00 0. -1.
      99925    2    1    2    0    0  0.15037587028E+02 -0.57848658286E+02 -0.12044197920E+03  0.29544100760E+03  0.26307132556E+03 0.  0.
         25    1    1    2    0    0 -0.15037587028E+02  0.57848658286E+02 -0.99781935581E+02  0.17081141372E+03  0.12509000000E+03 0.  0.
         25    1    3    3    0    0 -0.14043657627E+02 -0.59909763004E+02 -0.80265231544E+02  0.16086149172E+03  0.12509000000E+03 0.  0.
         25    1    3    3    0    0  0.29081244655E+02  0.20611047187E+01 -0.40176747659E+02  0.13457951589E+03  0.12509000000E+03 0.  0.
<mgrwt>
<rscale>  2 0.41096563E+03</rscale>
<asrwt>0</asrwt>
<pdfrwt beam="1">  1       21 0.18090331E-01 0.41096563E+03</pdfrwt>
<pdfrwt beam="2">  1       21 0.50476201E-01 0.41096563E+03</pdfrwt>
<totfact> 0.97626293E+04</totfact>
</mgrwt>
</event>
<event>
 6    0  0.1539497E-004  0.4120510E+03  0.7546771E-02  0.1039685E+00
         21   -1    0    0  502  501  0.00000000000E+00  0.00000000000E+00  0.10986772866E+04  0.10986772866E+04  0.00000000000E+00 0.  1.
         21   -1    0    0  501  502 -0.00000000000E+00 -0.00000000000E+00 -0.38634182863E+02  0.38634182863E+02  0.00000000000E+00 0.  1.
      99925    2    1    2    0    0 -0.34546781654E+02  0.55216538551E+02  0.70479333513E+03  0.75509130719E+03  0.26303401053E+03 0.  0.
         25    1    3    3    0    0 -0.23717194816E+02  0.45044439207E+02  0.26242667397E+03  0.29513856770E+03  0.12509000000E+03 0.  0.
         25    1    1    2    0    0  0.34546781654E+02 -0.55216538551E+02  0.35524976856E+03  0.38222016223E+03  0.12509000000E+03 0.  0.
         25    1    3    3    0    0 -0.10829586838E+02  0.10172099344E+02  0.44236666116E+03  0.45995273949E+03  0.12509000000E+03 0.  0.
<mgrwt>
<rscale>  2 0.41205096E+03</rscale>
<asrwt>0</asrwt>
<pdfrwt beam="1">  1       21 0.16157017E+00 0.41205096E+03</pdfrwt>
<pdfrwt beam="2">  1       21 0.56814982E-02 0.41205096E+03</pdfrwt>
<totfact> 0.48529262E+04</totfact>
</mgrwt>
</event>
<event>
 6    0  0.1539497E-004  0.4421615E+03  0.7546771E-02  0.1030086E+00
         21   -1    0    0  502  501  0.00000000000E+00  0.00000000000E+00  0.58092105335E+03  0.58092105335E+03  0.00000000000E+00 0.  1.
         21   -1    0    0  501  502 -0.00000000000E+00 -0.00000000000E+00 -0.84136554124E+02  0.84136554124E+02  0.00000000000E+00 0.  1.
      99925    2    1    2    0    0 -0.44349238137E+02 -0.44373856555E+02  0.19815546534E+03  0.33526570028E+03  0.26306198371E+03 0.  0.
         25    1    3    3    0    0 -0.43929720752E+02  0.16009445297E+01  0.68116691692E+02  0.14906299063E+03  0.12509000000E+03 0.  0.
         25    1    1    2    0    0  0.44349238137E+02  0.44373856555E+02  0.29862903389E+03  0.32979190720E+03  0.12509000000E+03 0.  0.
         25    1    3    3    0    0 -0.41951738581E+00 -0.45974801084E+02  0.13003877364E+03  0.18620270965E+03  0.12509000000E+03 0.  0.
<mgrwt>
<rscale>  2 0.44216149E+03</rscale>
<asrwt>0</asrwt>
<pdfrwt beam="1">  1       21 0.85429565E-01 0.44216149E+03</pdfrwt>
<pdfrwt beam="2">  1       21 0.12373023E-01 0.44216149E+03</pdfrwt>
<totfact> 0.60758358E+04</totfact>
</mgrwt>
</event>
<event>
 6    0  0.1539497E-004  0.5001106E+03  0.7546771E-02  0.1013750E+00
         21   -1    0    0  502  501  0.00000000000E+00  0.00000000000E+00  0.31636829311E+03  0.31636829311E+03  0.00000000000E+00 0.  1.
         21   -1    0    0  501  502 -0.00000000000E+00 -0.00000000000E+00 -0.19764195842E+03  0.19764195842E+03  0.00000000000E+00 0.  1.
      99925    2    1    2    0    0  0.63818452211E+02 -0.13218832214E+03  0.11136713551E+03  0.32101228971E+03  0.26286822539E+03 0.  0.
         25    1    1    2    0    0 -0.63818452211E+02  0.13218832214E+03  0.73591991866E+01  0.19299796182E+03  0.12509000000E+03 0.  0.
         25    1    3    3    0    0  0.58792394848E+02 -0.94640875529E+02  0.84335734506E+02  0.18754590165E+03  0.12509000000E+03 0.  0.
         25    1    3    3    0    0  0.50260573629E+01 -0.37547446614E+02  0.27031401000E+02  0.13346638805E+03  0.12509000000E+03 0.  0.
<mgrwt>
<rscale>  2 0.50011058E+03</rscale>
<asrwt>0</asrwt>
<pdfrwt beam="1">  1       21 0.46524749E-01 0.50011058E+03</pdfrwt>
<pdfrwt beam="2">  1       21 0.29064994E-01 0.50011058E+03</pdfrwt>
<totfact> 0.45629231E+04</totfact>
</mgrwt>
</event>
<event>
 6    0  0.1539497E-004  0.3919926E+03  0.7546771E-02  0.1046588E+00
         21   -1    0    0  502  501  0.00000000000E+00  0.00000000000E+00  0.86889423822E+02  0.86889423822E+02  0.00000000000E+00 0. -1.
         21   -1    0    0  501  502 -0.00000000000E+00 -0.00000000000E+00 -0.44210842828E+03  0.44210842828E+03  0.00000000000E+00 0. -1.
      99925    2    1    2    0    0  0.21618695015E+02 -0.12561015936E+02 -0.24813782979E+03  0.36244745984E+03  0.26300310164E+03 0.  0.
         25    1    3    3    0    0  0.49779230891E+02 -0.10515855112E+02 -0.14228529230E+03  0.19616617328E+03  0.12509000000E+03 0.  0.
         25    1    1    2    0    0 -0.21618695015E+02  0.12561015936E+02 -0.10708117467E+03  0.16655039226E+03  0.12509000000E+03 0.  0.
         25    1    3    3    0    0 -0.28160535877E+02 -0.20451608237E+01 -0.10585253749E+03  0.16628128655E+03  0.12509000000E+03 0.  0.
<mgrwt>
<rscale>  2 0.39199258E+03</rscale>
<asrwt>0</asrwt>
<pdfrwt beam="1">  1       21 0.12777857E-01 0.39199258E+03</pdfrwt>
<pdfrwt beam="2">  1       21 0.65015944E-01 0.39199258E+03</pdfrwt>
<totfact> 0.10779919E+05</totfact>
</mgrwt>
</event>
<event>
 5    0  0.1539497E-004  0.4509727E+03  0.7546771E-02  0.1027432E+00
         21   -1    0    0  502  501  0.00000000000E+00  0.00000000000E+00  0.47199787780E+03  0.47199787780E+03  0.00000000000E+00 0.  1.
         21   -1    0    0  501  502 -0.00000000000E+00 -0.00000000000E+00 -0.10772101335E+03  0.10772101335E+03  0.00000000000E+00 0.  1.
         25    1    1    2    0    0  0.84750529085E+02  0.69320274964E+01  0.20805446260E+03  0.25722533447E+03  0.12509000000E+03 0.  0.
         25    1    1    2    0    0  0.69558238963E+00 -0.12718152439E+02  0.10054650700E+03  0.16099485522E+03  0.12509000000E+03 0.  0.
         25    1    1    2    0    0 -0.85446111475E+02  0.57861249430E+01  0.55675894851E+02  0.16149870147E+03  0.12509000000E+03 0.  0.
<mgrwt>
<rscale>  2 0.45097268E+03</rscale>
<asrwt>0</asrwt>
<pdfrwt beam="1">  1       21 0.69411452E-01 0.45097268E+03</pdfrwt>
<pdfrwt beam="2">  1       21 0.15841326E-01 0.45097268E+03</pdfrwt>
<totfact> 0.61891442E+04</totfact>
</mgrwt>
</event>
<event>
 6    0  0.1539497E-004  0.4780731E+03  0.7546771E-02  0.1019666E+00
         21   -1    0    0  502  501  0.00000000000E+00  0.00000000000E+00  0.72227706389E+02  0.72227706389E+02  0.00000000000E+00 0. -1.
         21   -1    0    0  501  502 -0.00000000000E+00 -0.00000000000E+00 -0.79108805464E+03  0.79108805464E+03  0.00000000000E+00 0. -1.
      99925    2    1    2    0    0  0.51929846119E+02  0.99630956628E+02 -0.57417348342E+03  0.64149413586E+03  0.26309029029E+03 0.  0.
         25    1    3    3    0    0  0.41499655021E+02  0.15479379199E+02 -0.30884809056E+03  0.33614949604E+03  0.12509000000E+03 0.  0.
         25    1    1    2    0    0 -0.51929846119E+02 -0.99630956628E+02 -0.14468686482E+03  0.22182162516E+03  0.12509000000E+03 0.  0.
         25    1    3    3    0    0  0.10430191097E+02  0.84151577429E+02 -0.26532539287E+03  0.30534463982E+03  0.12509000000E+03 0.  0.
<mgrwt>
<rscale>  2 0.47807311E+03</rscale>
<asrwt>0</asrwt>
<pdfrwt beam="1">  1       21 0.10621721E-01 0.47807311E+03</pdfrwt>
<pdfrwt beam="2">  1       21 0.11633648E+00 0.47807311E+03</pdfrwt>
<totfact> 0.37573461E+04</totfact>
</mgrwt>
</event>
<event>
 6    0  0.1539497E-004  0.5451487E+03  0.7546771E-02  0.1002623E+00
         21   -1    0    0  502  501  0.00000000000E+00  0.00000000000E+00  0.27615551249E+03  0.27615551249E+03  0.00000000000E+00 0. -1.
         21   -1    0    0  501  502 -0.00000000000E+00 -0.00000000000E+00 -0.26903965123E+03  0.26903965123E+03  0.00000000000E+00 0. -1.
      99925    2    1    2    0    0 -0.16780385861E+03 -0.75744704162E+02 -0.15376397002E+02  0.32147926139E+03  0.26309140378E+03 0.  0.
         25    1    3    3    0    0 -0.10877662981E+03 -0.76835893928E+02 -0.12252828185E+02  0.18312222609E+03  0.12509000000E+03 0.  0.
         25    1    3    3    0    0 -0.59027228800E+02  0.10911897660E+01 -0.31235688172E+01  0.13835703530E+03  0.12509000000E+03 0.  0.
         25    1    1    2    0    0  0.16780385861E+03  0.75744704162E+02  0.22492258258E+02  0.22371590233E+03  0.12509000000E+03 0.  0.
<mgrwt>
<rscale>  2 0.54514872E+03</rscale>
<asrwt>0</asrwt>
<pdfrwt beam="1">  1       21 0.40611105E-01 0.54514872E+03</pdfrwt>
<pdfrwt beam="2">  1       21 0.39564655E-01 0.54514872E+03</pdfrwt>
<totfact> 0.32207638E+04</totfact>
</mgrwt>
</event>
<event>
 6    0  0.1539497E-004  0.4156313E+03  0.7546771E-02  0.1038498E+00
         21   -1    0    0  502  501  0.00000000000E+00  0.00000000000E+00  0.63430870970E+03  0.63430870970E+03  0.00000000000E+00 0.  1.
         21   -1    0    0  501  502 -0.00000000000E+00 -0.00000000000E+00 -0.68085680266E+02  0.68085680266E+02  0.00000000000E+00 0.  1.
      99925    2    1    2    0    0  0.64550830928E+02 -0.67481697782E+01  0.41617003322E+03  0.49654066194E+03  0.26295015657E+03 0.  0.
         25    1    1    2    0    0 -0.64550830928E+02  0.67481697782E+01  0.15005299622E+03  0.20585372803E+03  0.12509000000E+03 0.  0.
         25    1    3    3    0    0  0.51071807796E+02 -0.38126813729E+02  0.23514837556E+03  0.27386903824E+03  0.12509000000E+03 0.  0.
         25    1    3    3    0    0  0.13479023132E+02  0.31378643951E+02  0.18102165766E+03  0.22267162370E+03  0.12509000000E+03 0.  0.
<mgrwt>
<rscale>  2 0.41563128E+03</rscale>
<asrwt>0</asrwt>
<pdfrwt beam="1">  1       21 0.93280689E-01 0.41563128E+03</pdfrwt>
<pdfrwt beam="2">  1       21 0.10012600E-01 0.41563128E+03</pdfrwt>
<totfact> 0.72853707E+04</totfact>
</mgrwt>
</event>
<event>
 6    0  0.1539497E-004  0.4189155E+03  0.7546771E-02  0.1037420E+00
         21   -1    0    0  502  501  0.00000000000E+00  0.00000000000E+00  0.64651200841E+02  0.64651200841E+02  0.00000000000E+00 0. -1.
         21   -1    0    0  501  502 -0.00000000000E+00 -0.00000000000E+00 -0.67860393764E+03  0.67860393764E+03  0.00000000000E+00 0. -1.
      99925    2    1    2    0    0  0.54253222684E+02  0.37756437853E+02 -0.46148323651E+03  0.53525653899E+03  0.26299015986E+03 0.  0.
         25    1    1    2    0    0 -0.54253222684E+02 -0.37756437853E+02 -0.15246950029E+03  0.20799859949E+03  0.12509000000E+03 0.  0.
         25    1    3    3    0    0  0.42431184233E+02  0.48042370743E+02 -0.29159067984E+03  0.32369910017E+03  0.12509000000E+03 0.  0.
         25    1    3    3    0    0  0.11822038451E+02 -0.10285932890E+02 -0.16989255667E+03  0.21155743882E+03  0.12509000000E+03 0.  0.
<mgrwt>
<rscale>  2 0.41891555E+03</rscale>
<asrwt>0</asrwt>
<pdfrwt beam="1">  1       21 0.95075296E-02 0.41891555E+03</pdfrwt>
<pdfrwt beam="2">  1       21 0.99794696E-01 0.41891555E+03</pdfrwt>
<totfact> 0.67930702E+04</totfact>
</mgrwt>
</event>
<event>
 6    0  0.1539497E-004  0.4772611E+03  0.7546771E-02  0.1019891E+00
         21   -1    0    0  502  501  0.00000000000E+00  0.00000000000E+00  0.51153059836E+03  0.51153059836E+03  0.00000000000E+00 0.  1.
         21   -1    0    0  501  502 -0.00000000000E+00 -0.00000000000E+00 -0.11132187357E+03  0.11132187357E+03  0.00000000000E+00 0.  1.
      99925    2    1    2    0    0  0.12743590362E+03  0.15596579596E+02  0.20179647538E+03  0.35546120123E+03  0.26295947459E+03 0.  0.
         25    1    3    3    0    0  0.96558887610E+02 -0.16639158480E+02  0.12385468083E+03  0.20146456372E+03  0.12509000000E+03 0.  0.
         25    1    1    2    0    0 -0.12743590362E+03 -0.15596579596E+02  0.19841224942E+03  0.26739127070E+03  0.12509000000E+03 0.  0.
         25    1    3    3    0    0  0.30877016013E+02  0.32235738076E+02  0.77941794542E+02  0.15399663751E+03  0.12509000000E+03 0.  0.
<mgrwt>
<rscale>  2 0.47726112E+03</rscale>
<asrwt>0</asrwt>
<pdfrwt beam="1">  1       21 0.75225087E-01 0.47726112E+03</pdfrwt>
<pdfrwt beam="2">  1       21 0.16370864E-01 0.47726112E+03</pdfrwt>
<totfact> 0.48237328E+04</totfact>
</mgrwt>
</event>
<event>
 6    0  0.1539497E-004  0.4041943E+03  0.7546771E-02  0.1042337E+00
         21   -1    0    0  502  501  0.00000000000E+00  0.00000000000E+00  0.39179871241E+03  0.39179871241E+03  0.00000000000E+00 0. -1.
         21   -1    0    0  501  502 -0.00000000000E+00 -0.00000000000E+00 -0.10424549864E+03  0.10424549864E+03  0.00000000000E+00 0. -1.
      99925    2    1    2    0    0 -0.13254676045E+02 -0.28785870502E+02  0.24307980559E+03  0.35955353404E+03  0.26303353242E+03 0.  0.
         25    1    3    3    0    0 -0.64846239461E+01 -0.45765590458E+02  0.89363389532E+02  0.16052994458E+03  0.12509000000E+03 0.  0.
         25    1    1    2    0    0  0.13254676045E+02  0.28785870502E+02  0.44473408175E+02  0.13649067702E+03  0.12509000000E+03 0.  0.
         25    1    3    3    0    0 -0.67700520985E+01  0.16979719955E+02  0.15371641606E+03  0.19902358946E+03  0.12509000000E+03 0.  0.
<mgrwt>
<rscale>  2 0.40419427E+03</rscale>
<asrwt>0</asrwt>
<pdfrwt beam="1">  1       21 0.57617457E-01 0.40419427E+03</pdfrwt>
<pdfrwt beam="2">  1       21 0.15330221E-01 0.40419427E+03</pdfrwt>
<totfact> 0.10023657E+05</totfact>
</mgrwt>
</event>
<event>
 6    0  0.1539497E-004  0.4469688E+03  0.7546771E-02  0.1028630E+00
         21   -1    0    0  502  501  0.00000000000E+00  0.00000000000E+00  0.24021472408E+03  0.24021472408E+03  0.00000000000E+00 0.  1.
         21   -1    0    0  501  502 -0.00000000000E+00 -0.00000000000E+00 -0.20791931359E+03  0.20791931359E+03  0.00000000000E+00 0.  1.
      99925    2    1    2    0    0 -0.69885689280E+02 -0.66248166441E+02 -0.22522454221E+02  0.28102528411E+03  0.26304965357E+03 0.  0.
         25    1    3    3    0    0 -0.55558859198E+02 -0.39783663434E+02  0.23340744738E+02  0.14443623222E+03  0.12509000000E+03 0.  0.
         25    1    3    3    0    0 -0.14326830082E+02 -0.26464503007E+02 -0.45863198959E+02  0.13658905190E+03  0.12509000000E+03 0.  0.
         25    1    1    2    0    0  0.69885689280E+02  0.66248166441E+02  0.54817864706E+02  0.16710875355E+03  0.12509000000E+03 0.  0.
<mgrwt>
<rscale>  2 0.44696882E+03</rscale>
<asrwt>0</asrwt>
<pdfrwt beam="1">  1       21 0.35325695E-01 0.44696882E+03</pdfrwt>
<pdfrwt beam="2">  1       21 0.30576370E-01 0.44696882E+03</pdfrwt>
<totfact> 0.73659858E+04</totfact>
</mgrwt>
</event>
<event>
 6    0  0.1539497E-004  0.4574156E+03  0.7546771E-02  0.1025533E+00
         21   -1    0    0  502  501  0.00000000000E+00  0.00000000000E+00  0.14880945588E+03  0.14880945588E+03  0.00000000000E+00 0.  1.
         21   -1    0    0  501  502 -0.00000000000E+00 -0.00000000000E+00 -0.35150493299E+03  0.35150493299E+03  0.00000000000E+00 0.  1.
      99925    2    1    2    0    0 -0.86104886436E+02  0.53739008280E+02 -0.67042695666E+02  0.28971733833E+03  0.26294387350E+03 0.  0.
         25    1    1    2    0    0  0.86104886436E+02 -0.53739008280E+02 -0.13565278145E+03  0.21059705053E+03  0.12509000000E+03 0.  0.
         25    1    3    3    0    0 -0.74312595953E+02  0.26141492659E+01 -0.44769478437E+02  0.15225311160E+03  0.12509000000E+03 0.  0.
         25    1    3    3    0    0 -0.11792290483E+02  0.51124859014E+02 -0.22273217229E+02  0.13746422673E+03  0.12509000000E+03 0.  0.
<mgrwt>
<rscale>  2 0.45741560E+03</rscale>
<asrwt>0</asrwt>
<pdfrwt beam="1">  1       21 0.21883744E-01 0.45741560E+03</pdfrwt>
<pdfrwt beam="2">  1       21 0.51691901E-01 0.45741560E+03</pdfrwt>
<totfact> 0.64012281E+04</totfact>
</mgrwt>
</event>
<event>
 6    0  0.1539497E-004  0.4023100E+03  0.7546771E-02  0.1042983E+00
         21   -1    0    0  502  501  0.00000000000E+00  0.00000000000E+00  0.19917175216E+03  0.19917175216E+03  0.00000000000E+00 0. -1.
         21   -1    0    0  501  502 -0.00000000000E+00 -0.00000000000E+00 -0.20315797815E+03  0.20315797815E+03  0.00000000000E+00 0. -1.
      99925    2    1    2    0    0  0.66303176151E+01  0.43474554512E+02 -0.26158832910E+02  0.26789338627E+03  0.26296118319E+03 0.  0.
         25    1    1    2    0    0 -0.66303176151E+01 -0.43474554512E+02  0.22172606923E+02  0.13443634404E+03  0.12509000000E+03 0.  0.
         25    1    3    3    0    0 -0.36691393086E+02  0.15814616103E+02 -0.15707656452E+02  0.13225202827E+03  0.12509000000E+03 0.  0.
         25    1    3    3    0    0  0.43321710701E+02  0.27659938409E+02 -0.10451176458E+02  0.13564135800E+03  0.12509000000E+03 0.  0.
<mgrwt>
<rscale>  2 0.40230998E+03</rscale>
<asrwt>0</asrwt>
<pdfrwt beam="1">  1       21 0.29289964E-01 0.40230998E+03</pdfrwt>
<pdfrwt beam="2">  1       21 0.29876173E-01 0.40230998E+03</pdfrwt>
<totfact> 0.11321060E+05</totfact>
</mgrwt>
</event>
<event>
 6    0  0.1539497E-004  0.4121666E+03  0.7546771E-02  0.1039646E+00
         21   -1    0    0  502  501  0.00000000000E+00  0.00000000000E+00  0.74054930905E+03  0.74054930905E+03  0.00000000000E+00 0.  1.
         21   -1    0    0  501  502 -0.00000000000E+00 -0.00000000000E+00 -0.57349754706E+02  0.57349754706E+02  0.00000000000E+00 0.  1.
      99925    2    1    2    0    0 -0.14252104191E+02 -0.63369245182E+02  0.43404176901E+03  0.51163713160E+03  0.26298576668E+03 0.  0.
         25    1    1    2    0    0  0.14252104191E+02  0.63369245182E+02  0.24915778533E+03  0.28626193215E+03  0.12509000000E+03 0.  0.
         25    1    3    3    0    0  0.62304311413E+01 -0.32836116312E+02  0.14407544159E+03  0.19370665909E+03  0.12509000000E+03 0.  0.
         25    1    3    3    0    0 -0.20482535332E+02 -0.30533128870E+02  0.28996632743E+03  0.31793047251E+03  0.12509000000E+03 0.  0.
<mgrwt>
<rscale>  2 0.41216657E+03</rscale>
<asrwt>0</asrwt>
<pdfrwt beam="1">  1       21 0.10890430E+00 0.41216657E+03</pdfrwt>
<pdfrwt beam="2">  1       21 0.84337879E-02 0.41216657E+03</pdfrwt>
<totfact> 0.68001484E+04</totfact>
</mgrwt>
</event>
<event>
 6    0  0.1539497E-004  0.5159681E+03  0.7546771E-02  0.1009693E+00
         21   -1    0    0  502  501  0.00000000000E+00  0.00000000000E+00  0.33492317854E+02  0.33492317854E+02  0.00000000000E+00 0.  1.
         21   -1    0    0  501  502 -0.00000000000E+00 -0.00000000000E+00 -0.19871949203E+04  0.19871949203E+04  0.00000000000E+00 0.  1.
      99925    2    1    2    0    0  0.11111149093E+03  0.38433503523E+02 -0.16201808569E+04  0.16455777069E+04  0.26290127933E+03 0.  0.
         25    1    3    3    0    0  0.65072147986E+02 -0.11810732198E+02 -0.66999334307E+03  0.68477183477E+03  0.12509000000E+03 0.  0.
         25    1    1    2    0    0 -0.11111149093E+03 -0.38433503523E+02 -0.33352174557E+03  0.37510953131E+03  0.12509000000E+03 0.  0.
         25    1    3    3    0    0  0.46039342943E+02  0.50244235721E+02 -0.95018751383E+03  0.96080587210E+03  0.12509000000E+03 0.  0.
<mgrwt>
<rscale>  2 0.51596808E+03</rscale>
<asrwt>0</asrwt>
<pdfrwt beam="1">  1       21 0.49253402E-02 0.51596808E+03</pdfrwt>
<pdfrwt beam="2">  1       21 0.29223459E+00 0.51596808E+03</pdfrwt>
<totfact> 0.85566280E+03</totfact>
</mgrwt>
</event>
<event>
 6    0  0.1539497E-004  0.4374836E+03  0.7546771E-02  0.1031522E+00
         21   -1    0    0  502  501  0.00000000000E+00  0.00000000000E+00  0.14328714485E+03  0.14328714485E+03  0.00000000000E+00 0. -1.
         21   -1    0    0  501  502 -0.00000000000E+00 -0.00000000000E+00 -0.33393076357E+03  0.33393076357E+03  0.00000000000E+00 0. -1.
      99925    2    1    2    0    0 -0.27294051661E+02  0.45766671267E+02 -0.35684793515E+02  0.27106432717E+03  0.26336839507E+03 0.  0.
         25    1    3    3    0    0 -0.43997258595E+02 -0.20461007305E+01 -0.52525112865E+01  0.13272167218E+03  0.12509000000E+03 0.  0.
         25    1    1    2    0    0  0.27294051661E+02 -0.45766671267E+02 -0.15495882520E+03  0.20615358125E+03  0.12509000000E+03 0.  0.
         25    1    3    3    0    0  0.16703206935E+02  0.47812771997E+02 -0.30432282228E+02  0.13834265499E+03  0.12509000000E+03 0.  0.
<mgrwt>
<rscale>  2 0.43748365E+03</rscale>
<asrwt>0</asrwt>
<pdfrwt beam="1">  1       21 0.21071639E-01 0.43748365E+03</pdfrwt>
<pdfrwt beam="2">  1       21 0.49107465E-01 0.43748365E+03</pdfrwt>
<totfact> 0.77075924E+04</totfact>
</mgrwt>
</event>
<event>
 6    0  0.1539497E-004  0.5357915E+03  0.7546771E-02  0.1004837E+00
         21   -1    0    0  502  501  0.00000000000E+00  0.00000000000E+00  0.13666618111E+03  0.13666618111E+03  0.00000000000E+00 0. -1.
         21   -1    0    0  501  502 -0.00000000000E+00 -0.00000000000E+00 -0.52513445871E+03  0.52513445871E+03  0.00000000000E+00 0. -1.
      99925    2    1    2    0    0 -0.15908220726E+03 -0.80326870111E+01 -0.33086137942E+03  0.45123536361E+03  0.26224497755E+03 0.  0.
         25    1    1    2    0    0  0.15908220726E+03  0.80326870111E+01 -0.57606898179E+02  0.21056527621E+03  0.12509000000E+03 0.  0.
         25    1    3    3    0    0 -0.11991552691E+03 -0.19407556594E+02 -0.20545132160E+03  0.26947011057E+03  0.12509000000E+03 0.  0.
         25    1    3    3    0    0 -0.39166680353E+02  0.11374869583E+02 -0.12541005782E+03  0.18176525303E+03  0.12509000000E+03 0.  0.
<mgrwt>
<rscale>  2 0.53579146E+03</rscale>
<asrwt>0</asrwt>
<pdfrwt beam="1">  1       21 0.20097968E-01 0.53579146E+03</pdfrwt>
<pdfrwt beam="2">  1       21 0.77225655E-01 0.53579146E+03</pdfrwt>
<totfact> 0.30450551E+04</totfact>
</mgrwt>
</event>
<event>
 6    0  0.1539497E-004  0.4105640E+03  0.7546771E-02  0.1040182E+00
         21   -1    0    0  502  501  0.00000000000E+00  0.00000000000E+00  0.36857055298E+03  0.36857055298E+03  0.00000000000E+00 0.  1.
         21   -1    0    0  501  502 -0.00000000000E+00 -0.00000000000E+00 -0.11433551214E+03  0.11433551214E+03  0.00000000000E+00 0.  1.
      99925    2    1    2    0    0 -0.22896680065E+02  0.49685866820E+02  0.13068626389E+03  0.29877363531E+03  0.26304722441E+03 0.  0.
         25    1    1    2    0    0  0.22896680065E+02 -0.49685866820E+02  0.12354877695E+03  0.18413242980E+03  0.12509000000E+03 0.  0.
         25    1    3    3    0    0 -0.28378579021E+02 -0.12442876568E+02  0.60518568659E+02  0.14237336189E+03  0.12509000000E+03 0.  0.
         25    1    3    3    0    0  0.54818989556E+01  0.62128743387E+02  0.70167695230E+02  0.15640027342E+03  0.12509000000E+03 0.  0.
<mgrwt>
<rscale>  2 0.41056402E+03</rscale>
<asrwt>0</asrwt>
<pdfrwt beam="1">  1       21 0.54201552E-01 0.41056402E+03</pdfrwt>
<pdfrwt beam="2">  1       21 0.16814046E-01 0.41056402E+03</pdfrwt>
<totfact> 0.96178627E+04</totfact>
</mgrwt>
</event>
<event>
 6    0  0.1539497E-004  0.4711856E+03  0.7546771E-02  0.1021586E+00
         21   -1    0    0  502  501  0.00000000000E+00  0.00000000000E+00  0.33834683504E+03  0.33834683504E+03  0.00000000000E+00 0. -1.
         21   -1    0    0  501  502 -0.00000000000E+00 -0.00000000000E+00 -0.16404458278E+03  0.16404458278E+03  0.00000000000E+00 0. -1.
      99925    2    1    2    0    0 -0.52890422754E+02  0.89193590534E+02  0.18769976417E+03  0.33935800150E+03  0.26302045225E+03 0.  0.
         25    1    3    3    0    0 -0.24744422357E+02  0.38454825405E+02  0.44161275904E+02  0.14031673608E+03  0.12509000000E+03 0.  0.
         25    1    3    3    0    0 -0.28146000398E+02  0.50738765129E+02  0.14353848827E+03  0.19904126542E+03  0.12509000000E+03 0.  0.
         25    1    1    2    0    0  0.52890422754E+02 -0.89193590534E+02 -0.13397511917E+02  0.16303341632E+03  0.12509000000E+03 0.  0.
<mgrwt>
<rscale>  2 0.47118559E+03</rscale>
<asrwt>0</asrwt>
<pdfrwt beam="1">  1       21 0.49756887E-01 0.47118559E+03</pdfrwt>
<pdfrwt beam="2">  1       21 0.24124203E-01 0.47118559E+03</pdfrwt>
<totfact> 0.57369620E+04</totfact>
</mgrwt>
</event>
<event>
 6    0  0.1539497E-004  0.4467416E+03  0.7546771E-02  0.1028698E+00
         21   -1    0    0  502  501  0.00000000000E+00  0.00000000000E+00  0.16400634352E+03  0.16400634352E+03  0.00000000000E+00 0. -1.
         21   -1    0    0  501  502 -0.00000000000E+00 -0.00000000000E+00 -0.30422311215E+03  0.30422311215E+03  0.00000000000E+00 0. -1.
      99925    2    1    2    0    0  0.41823587628E+02 -0.26012393033E+02  0.96358075701E+01  0.26691090271E+03  0.26215019383E+03 0.  0.
         25    1    1    2    0    0 -0.41823587628E+02  0.26012393033E+02 -0.14985257620E+03  0.20131855296E+03  0.12509000000E+03 0.  0.
         25    1    3    3    0    0  0.51113294598E+02  0.83202163442E+01 -0.82583062450E+01  0.13563739384E+03  0.12509000000E+03 0.  0.
         25    1    3    3    0    0 -0.92897069696E+01 -0.34332609378E+02  0.17894113815E+02  0.13127350887E+03  0.12509000000E+03 0.  0.
<mgrwt>
<rscale>  2 0.44674163E+03</rscale>
<asrwt>0</asrwt>
<pdfrwt beam="1">  1       21 0.24118580E-01 0.44674163E+03</pdfrwt>
<pdfrwt beam="2">  1       21 0.44738692E-01 0.44674163E+03</pdfrwt>
<totfact> 0.72182888E+04</totfact>
</mgrwt>
</event>
<event>
 6    0  0.1539497E-004  0.4798037E+03  0.7546771E-02  0.1019189E+00
         21   -1    0    0  502  501  0.00000000000E+00  0.00000000000E+00  0.12468608132E+03  0.12468608132E+03  0.00000000000E+00 0. -1.
         21   -1    0    0  501  502 -0.00000000000E+00 -0.00000000000E+00 -0.46158237421E+03  0.46158237421E+03  0.00000000000E+00 0. -1.
      99925    2    1    2    0    0  0.53088393224E+02  0.40634413554E+02 -0.35098534609E+03  0.44373585372E+03  0.26313734369E+03 0.  0.
         25    1    3    3    0    0  0.36774568765E+02  0.54370341218E+02 -0.15003914100E+03  0.20607706045E+03  0.12509000000E+03 0.  0.
         25    1    3    3    0    0  0.16313824459E+02 -0.13735927664E+02 -0.20094620509E+03  0.23765879327E+03  0.12509000000E+03 0.  0.
         25    1    1    2    0    0 -0.53088393224E+02 -0.40634413554E+02  0.14089053200E+02  0.14253260181E+03  0.12509000000E+03 0.  0.
<mgrwt>
<rscale>  2 0.47980370E+03</rscale>
<asrwt>0</asrwt>
<pdfrwt beam="1">  1       21 0.18336189E-01 0.47980370E+03</pdfrwt>
<pdfrwt beam="2">  1       21 0.67879760E-01 0.47980370E+03</pdfrwt>
<totfact> 0.49159656E+04</totfact>
</mgrwt>
</event>
<event>
 6    0  0.1539497E-004  0.4693302E+03  0.7546771E-02  0.1022109E+00
         21   -1    0    0  502  501  0.00000000000E+00  0.00000000000E+00  0.22449432807E+03  0.22449432807E+03  0.00000000000E+00 0. -1.
         21   -1    0    0  501  502 -0.00000000000E+00 -0.00000000000E+00 -0.24529666752E+03  0.24529666752E+03  0.00000000000E+00 0. -1.
      99925    2    1    2    0    0 -0.62647422001E+02  0.25898465881E+02 -0.11920267980E+03  0.29680092333E+03  0.26322248992E+03 0.  0.
         25    1    3    3    0    0 -0.54885896790E+02 -0.19793630580E+02 -0.68494895918E+02  0.15408863795E+03  0.12509000000E+03 0.  0.
         25    1    1    2    0    0  0.62647422001E+02 -0.25898465881E+02  0.98400340354E+02  0.17299007226E+03  0.12509000000E+03 0.  0.
         25    1    3    3    0    0 -0.77615252118E+01  0.45692096460E+02 -0.50707783881E+02  0.14271228538E+03  0.12509000000E+03 0.  0.
<mgrwt>
<rscale>  2 0.46933021E+03</rscale>
<asrwt>0</asrwt>
<pdfrwt beam="1">  1       21 0.33013872E-01 0.46933021E+03</pdfrwt>
<pdfrwt beam="2">  1       21 0.36073039E-01 0.46933021E+03</pdfrwt>
<totfact> 0.60282397E+04</totfact>
</mgrwt>
</event>
<event>
 6    0  0.1539497E-004  0.1003284E+04  0.7546771E-02  0.9304950E-01
         21   -1    0    0  502  501  0.00000000000E+00  0.00000000000E+00  0.79348628530E+03  0.79348628530E+03  0.00000000000E+00 0.  1.
         21   -1    0    0  501  502 -0.00000000000E+00 -0.00000000000E+00 -0.31713821080E+03  0.31713821080E+03  0.00000000000E+00 0.  1.
      99925    2    1    2    0    0  0.12440175202E+03 -0.26104831618E+03 -0.14261268710E+03  0.41608727479E+03  0.26299852172E+03 0.  0.
         25    1    1    2    0    0 -0.12440175202E+03  0.26104831618E+03  0.61896076160E+03  0.69453722131E+03  0.12509000000E+03 0.  0.
         25    1    3    3    0    0  0.87369896047E+02 -0.17348686794E+03 -0.10879165114E+03  0.25537095281E+03  0.12509000000E+03 0.  0.
         25    1    3    3    0    0  0.37031855974E+02 -0.87561448245E+02 -0.33821035961E+02  0.16071632197E+03  0.12509000000E+03 0.  0.
<mgrwt>
<rscale>  2 0.10032842E+04</rscale>
<asrwt>0</asrwt>
<pdfrwt beam="1">  1       21 0.11668916E+00 0.10032842E+04</pdfrwt>
<pdfrwt beam="2">  1       21 0.46637972E-01 0.10032842E+04</pdfrwt>
<totfact> 0.18792453E+03</totfact>
</mgrwt>
</event>
<event>
 6    0  0.1539497E-004  0.4271158E+03  0.7546771E-02  0.1034775E+00
         21   -1    0    0  502  501  0.00000000000E+00  0.00000000000E+00  0.41046667457E+03  0.41046667457E+03  0.00000000000E+00 0. -1.
         21   -1    0    0  501  502 -0.00000000000E+00 -0.00000000000E+00 -0.11111008394E+03  0.11111008394E+03  0.00000000000E+00 0. -1.
      99925    2    1    2    0    0  0.17763567047E+01 -0.83702934724E+02  0.17940702447E+03  0.32910664850E+03  0.26289725927E+03 0.  0.
         25    1    1    2    0    0 -0.17763567047E+01  0.83702934724E+02  0.11994956617E+03  0.19247011001E+03  0.12509000000E+03 0.  0.
         25    1    3    3    0    0 -0.20003126103E+02 -0.91159124734E+01  0.65286439022E+02  0.14280424410E+03  0.12509000000E+03 0.  0.
         25    1    3    3    0    0  0.21779482808E+02 -0.74587022251E+02  0.11412058545E+03  0.18630240439E+03  0.12509000000E+03 0.  0.
<mgrwt>
<rscale>  2 0.42711585E+03</rscale>
<asrwt>0</asrwt>
<pdfrwt beam="1">  1       21 0.60362746E-01 0.42711585E+03</pdfrwt>
<pdfrwt beam="2">  1       21 0.16339718E-01 0.42711585E+03</pdfrwt>
<totfact> 0.80046662E+04</totfact>
</mgrwt>
</event>
<event>
 6    0  0.1539497E-004  0.4572631E+03  0.7546771E-02  0.1025578E+00
         21   -1    0    0  502  501  0.00000000000E+00  0.00000000000E+00  0.14971698618E+03  0.14971698618E+03  0.00000000000E+00 0.  1.
         21   -1    0    0  501  502 -0.00000000000E+00 -0.00000000000E+00 -0.34914128039E+03  0.34914128039E+03  0.00000000000E+00 0.  1.
      99925    2    1    2    0    0  0.28008697804E+02  0.21183478153E+01 -0.29825675536E+01  0.26428240544E+03  0.26276856655E+03 0.  0.
         25    1    1    2    0    0 -0.28008697804E+02 -0.21183478153E+01 -0.19644172666E+03  0.23457586112E+03  0.12509000000E+03 0.  0.
         25    1    3    3    0    0 -0.22053456427E+02 -0.16413718751E+02 -0.64016520436E+01  0.12823515256E+03  0.12509000000E+03 0.  0.
         25    1    3    3    0    0  0.50062154231E+02  0.18532066566E+02  0.34190844900E+01  0.13604725288E+03  0.12509000000E+03 0.  0.
<mgrwt>
<rscale>  2 0.45726308E+03</rscale>
<asrwt>0</asrwt>
<pdfrwt beam="1">  1       21 0.22017204E-01 0.45726308E+03</pdfrwt>
<pdfrwt beam="2">  1       21 0.51344304E-01 0.45726308E+03</pdfrwt>
<totfact> 0.64189996E+04</totfact>
</mgrwt>
</event>
<event>
 6    0  0.1539497E-004  0.4896888E+03  0.7546771E-02  0.1016506E+00
         21   -1    0    0  502  501  0.00000000000E+00  0.00000000000E+00  0.87676830908E+02  0.87676830908E+02  0.00000000000E+00 0. -1.
         21   -1    0    0  501  502 -0.00000000000E+00 -0.00000000000E+00 -0.68374706212E+03  0.68374706212E+03  0.00000000000E+00 0. -1.
      99925    2    1    2    0    0  0.35714938001E+02 -0.24983395547E+02 -0.57932669983E+03  0.63790392900E+03  0.26344310705E+03 0.  0.
         25    1    3    3    0    0 -0.18120472415E+01 -0.23414953120E+02 -0.36890875813E+03  0.39024700315E+03  0.12509000000E+03 0.  0.
         25    1    1    2    0    0 -0.35714938001E+02  0.24983395547E+02 -0.16743531382E+02  0.13351996402E+03  0.12509000000E+03 0.  0.
         25    1    3    3    0    0  0.37526985242E+02 -0.15684424267E+01 -0.21041794170E+03  0.24765692585E+03  0.12509000000E+03 0.  0.
<mgrwt>
<rscale>  2 0.48968878E+03</rscale>
<asrwt>0</asrwt>
<pdfrwt beam="1">  1       21 0.12893652E-01 0.48968878E+03</pdfrwt>
<pdfrwt beam="2">  1       21 0.10055104E+00 0.48968878E+03</pdfrwt>
<totfact> 0.37788372E+04</totfact>
</mgrwt>
</event>
<event>
 6    0  0.1539497E-004  0.3993503E+03  0.7546771E-02  0.1044005E+00
         21   -1    0    0  502  501  0.00000000000E+00  0.00000000000E+00  0.75998215424E+03  0.75998215424E+03  0.00000000000E+00 0. -1.
         21   -1    0    0  501  502 -0.00000000000E+00 -0.00000000000E+00 -0.52461963138E+02  0.52461963138E+02  0.00000000000E+00 0. -1.
      99925    2    1    2    0    0 -0.12528116060E+02  0.42255656532E+02  0.48157392925E+03  0.55044847706E+03  0.26294026387E+03 0.  0.
         25    1    1    2    0    0  0.12528116060E+02 -0.42255656532E+02  0.22594626186E+03  0.26199564032E+03  0.12509000000E+03 0.  0.
         25    1    3    3    0    0 -0.15499780092E+02  0.57644437606E+02  0.21893713522E+03  0.25912178922E+03  0.12509000000E+03 0.  0.
         25    1    3    3    0    0  0.29716640319E+01 -0.15388781074E+02  0.26263679403E+03  0.29132668784E+03  0.12509000000E+03 0.  0.
<mgrwt>
<rscale>  2 0.39935025E+03</rscale>
<asrwt>0</asrwt>
<pdfrwt beam="1">  1       21 0.11176207E+00 0.39935025E+03</pdfrwt>
<pdfrwt beam="2">  1       21 0.77149951E-02 0.39935025E+03</pdfrwt>
<totfact> 0.74899038E+04</totfact>
</mgrwt>
</event>
<event>
 6    0  0.1539497E-004  0.4721175E+03  0.7546771E-02  0.1021324E+00
         21   -1    0    0  502  501  0.00000000000E+00  0.00000000000E+00  0.75362595147E+03  0.75362595147E+03  0.00000000000E+00 0.  1.
         21   -1    0    0  501  502 -0.00000000000E+00 -0.00000000000E+00 -0.73940835822E+02  0.73940835822E+02  0.00000000000E+00 0.  1.
      99925    2    1    2    0    0  0.11417695218E+02  0.24340062664E+02  0.20142009355E+03  0.33248321669E+03  0.26315818984E+03 0.  0.
         25    1    3    3    0    0 -0.64599940045E+01 -0.32815122514E+01  0.14423957416E+03  0.19106298097E+03  0.12509000000E+03 0.  0.
         25    1    1    2    0    0 -0.11417695218E+02 -0.24340062664E+02  0.47826502210E+03  0.49508357060E+03  0.12509000000E+03 0.  0.
         25    1    3    3    0    0  0.17877689223E+02  0.27621574916E+02  0.57180519389E+02  0.14142023572E+03  0.12509000000E+03 0.  0.
<mgrwt>
<rscale>  2 0.47211750E+03</rscale>
<asrwt>0</asrwt>
<pdfrwt beam="1">  1       21 0.11082734E+00 0.47211750E+03</pdfrwt>
<pdfrwt beam="2">  1       21 0.10873653E-01 0.47211750E+03</pdfrwt>
<totfact> 0.40710636E+04</totfact>
</mgrwt>
</event>
<event>
 6    0  0.1539497E-004  0.4001281E+03  0.7546771E-02  0.1043735E+00
         21   -1    0    0  502  501  0.00000000000E+00  0.00000000000E+00  0.66131218096E+02  0.66131218096E+02  0.00000000000E+00 0.  1.
         21   -1    0    0  501  502 -0.00000000000E+00 -0.00000000000E+00 -0.60524560812E+03  0.60524560812E+03  0.00000000000E+00 0.  1.
      99925    2    1    2    0    0 -0.20601040123E+02 -0.40687416804E+02 -0.36790195020E+03  0.45448727739E+03  0.26292008597E+03 0.  0.
         25    1    1    2    0    0  0.20601040123E+02  0.40687416804E+02 -0.17121243982E+03  0.21688954882E+03  0.12509000000E+03 0.  0.
         25    1    3    3    0    0  0.22257938217E+02 -0.42579282827E+02 -0.20044387661E+03  0.24110924269E+03  0.12509000000E+03 0.  0.
         25    1    3    3    0    0 -0.42858978340E+02  0.18918660232E+01 -0.16745807360E+03  0.21337803470E+03  0.12509000000E+03 0.  0.
<mgrwt>
<rscale>  2 0.40012813E+03</rscale>
<asrwt>0</asrwt>
<pdfrwt beam="1">  1       21 0.97251796E-02 0.40012813E+03</pdfrwt>
<pdfrwt beam="2">  1       21 0.89006703E-01 0.40012813E+03</pdfrwt>
<totfact> 0.86083854E+04</totfact>
</mgrwt>
</event>
<event>
 6    0  0.1539497E-004  0.3910164E+03  0.7546771E-02  0.1046936E+00
         21   -1    0    0  502  501  0.00000000000E+00  0.00000000000E+00  0.24425001097E+03  0.24425001097E+03  0.00000000000E+00 0. -1.
         21   -1    0    0  501  502 -0.00000000000E+00 -0.00000000000E+00 -0.15649318835E+03  0.15649318835E+03  0.00000000000E+00 0. -1.
      99925    2    1    2    0    0  0.14304382814E+02 -0.22865052789E+01  0.76770662593E+02  0.27433889842E+03  0.26297956779E+03 0.  0.
         25    1    3    3    0    0  0.15525777623E+01 -0.18334161792E+02  0.56533511534E+00  0.12643725594E+03  0.12509000000E+03 0.  0.
         25    1    3    3    0    0  0.12751805051E+02  0.16047656513E+02  0.76205327478E+02  0.14790164248E+03  0.12509000000E+03 0.  0.
         25    1    1    2    0    0 -0.14304382814E+02  0.22865052789E+01  0.10986160029E+02  0.12640430090E+03  0.12509000000E+03 0.  0.
<mgrwt>
<rscale>  2 0.39101643E+03</rscale>
<asrwt>0</asrwt>
<pdfrwt beam="1">  1       21 0.35919119E-01 0.39101643E+03</pdfrwt>
<pdfrwt beam="2">  1       21 0.23013704E-01 0.39101643E+03</pdfrwt>
<totfact> 0.12555237E+05</totfact>
</mgrwt>
</event>
<event>
 6    0  0.1539497E-004  0.4246258E+03  0.7546771E-02  0.1035571E+00
         21   -1    0    0  502  501  0.00000000000E+00  0.00000000000E+00  0.16913708255E+03  0.16913708255E+03  0.00000000000E+00 0. -1.
         21   -1    0    0  501  502 -0.00000000000E+00 -0.00000000000E+00 -0.26651024639E+03  0.26651024639E+03  0.00000000000E+00 0. -1.
      99925    2    1    2    0    0 -0.36438423986E+02 -0.68341085327E+02 -0.36623787265E+02  0.27647365794E+03  0.26286521082E+03 0.  0.
         25    1    1    2    0    0  0.36438423986E+02  0.68341085327E+02 -0.60749376577E+02  0.15917367100E+03  0.12509000000E+03 0.  0.
         25    1    3    3    0    0 -0.45707354578E+02 -0.44778277740E+02 -0.47664617339E+02  0.14837007874E+03  0.12509000000E+03 0.  0.
         25    1    3    3    0    0  0.92689305926E+01 -0.23562807587E+02  0.11040830074E+02  0.12810357920E+03  0.12509000000E+03 0.  0.
<mgrwt>
<rscale>  2 0.42462579E+03</rscale>
<asrwt>0</asrwt>
<pdfrwt beam="1">  1       21 0.24873101E-01 0.42462579E+03</pdfrwt>
<pdfrwt beam="2">  1       21 0.39192683E-01 0.42462579E+03</pdfrwt>
<totfact> 0.89848959E+04</totfact>
</mgrwt>
</event>
<event>
 6    0  0.1539497E-004  0.4118313E+03  0.7546771E-02  0.1039758E+00
         21   -1    0    0  502  501  0.00000000000E+00  0.00000000000E+00  0.15141610758E+03  0.15141610758E+03  0.00000000000E+00 0. -1.
         21   -1    0    0  501  502 -0.00000000000E+00 -0.00000000000E+00 -0.28003136276E+03  0.28003136276E+03  0.00000000000E+00 0. -1.
      99925    2    1    2    0    0  0.59639478673E+00  0.60244395713E+02 -0.59232617096E+02  0.27623406412E+03  0.26299622117E+03 0.  0.
         25    1    3    3    0    0 -0.32066210724E+02  0.55041002648E+01 -0.23619479345E+02  0.13139225584E+03  0.12509000000E+03 0.  0.
         25    1    1    2    0    0 -0.59639478673E+00 -0.60244395713E+02 -0.69382638084E+02  0.15521340622E+03  0.12509000000E+03 0.  0.
         25    1    3    3    0    0  0.32662605511E+02  0.54740295449E+02 -0.35613137751E+02  0.14484180828E+03  0.12509000000E+03 0.  0.
<mgrwt>
<rscale>  2 0.41183132E+03</rscale>
<asrwt>0</asrwt>
<pdfrwt beam="1">  1       21 0.22267075E-01 0.41183132E+03</pdfrwt>
<pdfrwt beam="2">  1       21 0.41181083E-01 0.41183132E+03</pdfrwt>
<totfact> 0.10073840E+05</totfact>
</mgrwt>
</event>
<event>
 6    0  0.1539497E-004  0.8774353E+03  0.7546771E-02  0.9454236E-01
         21   -1    0    0  502  501  0.00000000000E+00  0.00000000000E+00  0.28584004126E+04  0.28584004126E+04  0.00000000000E+00 0.  1.
         21   -1    0    0  501  502 -0.00000000000E+00 -0.00000000000E+00 -0.67335974917E+02  0.67335974917E+02  0.00000000000E+00 0.  1.
      99925    2    1    2    0    0 -0.19989590836E+03  0.19379574570E+03  0.58775094454E+03  0.70138186937E+03  0.26262175965E+03 0.  0.
         25    1    1    2    0    0  0.19989590836E+03 -0.19379574570E+03  0.22033134931E+04  0.22243545181E+04  0.12509000000E+03 0.  0.
         25    1    3    3    0    0 -0.11508232809E+03  0.14507291194E+03  0.36069350853E+03  0.42430815125E+03  0.12509000000E+03 0.  0.
         25    1    3    3    0    0 -0.84813580275E+02  0.48722833764E+02  0.22705743600E+03  0.27707371812E+03  0.12509000000E+03 0.  0.
<mgrwt>
<rscale>  2 0.87743530E+03</rscale>
<asrwt>0</asrwt>
<pdfrwt beam="1">  1       21 0.42035292E+00 0.87743530E+03</pdfrwt>
<pdfrwt beam="2">  1       21 0.99023512E-02 0.87743530E+03</pdfrwt>
<totfact> 0.34239017E+02</totfact>
</mgrwt>
</event>
<event>
 6    0  0.1539497E-004  0.4812717E+03  0.7546771E-02  0.1018786E+00
         21   -1    0    0  502  501  0.00000000000E+00  0.00000000000E+00  0.75295574616E+02  0.75295574616E+02  0.00000000000E+00 0. -1.
         21   -1    0    0  501  502 -0.00000000000E+00 -0.00000000000E+00 -0.76904402766E+03  0.76904402766E+03  0.00000000000E+00 0. -1.
      99925    2    1    2    0    0  0.62644332755E+02  0.12022399608E+03 -0.40138392973E+03  0.49864805732E+03  0.26298803084E+03 0.  0.
         25    1    1    2    0    0 -0.62644332755E+02 -0.12022399608E+03 -0.29236452331E+03  0.34569154495E+03  0.12509000000E+03 0.  0.
         25    1    3    3    0    0  0.58188273810E+01  0.37467251769E+02 -0.22525546460E+03  0.26043269023E+03  0.12509000000E+03 0.  0.
         25    1    3    3    0    0  0.56825505374E+02  0.82756744316E+02 -0.17612846514E+03  0.23821536710E+03  0.12509000000E+03 0.  0.
<mgrwt>
<rscale>  2 0.48127170E+03</rscale>
<asrwt>0</asrwt>
<pdfrwt beam="1">  1       21 0.11072879E-01 0.48127170E+03</pdfrwt>
<pdfrwt beam="2">  1       21 0.11309471E+00 0.48127170E+03</pdfrwt>
<totfact> 0.37373915E+04</totfact>
</mgrwt>
</event>
<event>
 6    0  0.1539497E-004  0.4115602E+03  0.7546771E-02  0.1039849E+00
         21   -1    0    0  502  501  0.00000000000E+00  0.00000000000E+00  0.28486644378E+03  0.28486644378E+03  0.00000000000E+00 0. -1.
         21   -1    0    0  501  502 -0.00000000000E+00 -0.00000000000E+00 -0.14865021946E+03  0.14865021946E+03  0.00000000000E+00 0. -1.
      99925    2    1    2    0    0 -0.88616853563E+01 -0.27196379346E+02  0.15057125519E+03  0.30439754176E+03  0.26299807609E+03 0.  0.
         25    1    1    2    0    0  0.88616853563E+01  0.27196379346E+02 -0.14355030866E+02  0.12911912147E+03  0.12509000000E+03 0.  0.
         25    1    3    3    0    0 -0.26155088299E+02  0.55501346630E+01  0.10727482175E+03  0.16694396701E+03  0.12509000000E+03 0.  0.
         25    1    3    3    0    0  0.17293402943E+02 -0.32746514009E+02  0.43296433433E+02  0.13745357476E+03  0.12509000000E+03 0.  0.
<mgrwt>
<rscale>  2 0.41156025E+03</rscale>
<asrwt>0</asrwt>
<pdfrwt beam="1">  1       21 0.41892124E-01 0.41156025E+03</pdfrwt>
<pdfrwt beam="2">  1       21 0.21860326E-01 0.41156025E+03</pdfrwt>
<totfact> 0.10074050E+05</totfact>
</mgrwt>
</event>
<event>
 6    0  0.1539497E-004  0.4303699E+03  0.7546771E-02  0.1033743E+00
         21   -1    0    0  502  501  0.00000000000E+00  0.00000000000E+00  0.39008389889E+03  0.39008389889E+03  0.00000000000E+00 0. -1.
         21   -1    0    0  501  502 -0.00000000000E+00 -0.00000000000E+00 -0.11870411647E+03  0.11870411647E+03  0.00000000000E+00 0. -1.
      99925    2    1    2    0    0 -0.78405859755E+02  0.11485704291E+02  0.12611585111E+03  0.30135485002E+03  0.26197354347E+03 0.  0.
         25    1    3    3    0    0 -0.24657681562E+02 -0.27565178008E+02  0.44162478395E+02  0.13771591374E+03  0.12509000000E+03 0.  0.
         25    1    3    3    0    0 -0.53748178193E+02  0.39050882299E+02  0.81953372711E+02  0.16363893628E+03  0.12509000000E+03 0.  0.
         25    1    1    2    0    0  0.78405859755E+02 -0.11485704291E+02  0.14526393131E+03  0.20743316535E+03  0.12509000000E+03 0.  0.
<mgrwt>
<rscale>  2 0.43036991E+03</rscale>
<asrwt>0</asrwt>
<pdfrwt beam="1">  1       21 0.57365279E-01 0.43036991E+03</pdfrwt>
<pdfrwt beam="2">  1       21 0.17456488E-01 0.43036991E+03</pdfrwt>
<totfact> 0.78992780E+04</totfact>
</mgrwt>
</event>
<event>
 6    0  0.1539497E-004  0.4146882E+03  0.7546771E-02  0.1038809E+00
         21   -1    0    0  502  501  0.00000000000E+00  0.00000000000E+00  0.65764848906E+03  0.65764848906E+03  0.00000000000E+00 0. -1.
         21   -1    0    0  501  502 -0.00000000000E+00 -0.00000000000E+00 -0.65371657697E+02  0.65371657697E+02  0.00000000000E+00 0. -1.
      99925    2    1    2    0    0 -0.46129512684E+02 -0.35960308396E+02  0.32294043190E+03  0.42034758458E+03  0.26264137828E+03 0.  0.
         25    1    3    3    0    0 -0.29876217925E+02 -0.56094322566E+02  0.15065113166E+03  0.20586994194E+03  0.12509000000E+03 0.  0.
         25    1    1    2    0    0  0.46129512684E+02  0.35960308396E+02  0.26933639947E+03  0.30267256218E+03  0.12509000000E+03 0.  0.
         25    1    3    3    0    0 -0.16253294759E+02  0.20134014171E+02  0.17228930023E+03  0.21447764264E+03  0.12509000000E+03 0.  0.
<mgrwt>
<rscale>  2 0.41468818E+03</rscale>
<asrwt>0</asrwt>
<pdfrwt beam="1">  1       21 0.96713009E-01 0.41468818E+03</pdfrwt>
<pdfrwt beam="2">  1       21 0.96134794E-02 0.41468818E+03</pdfrwt>
<totfact> 0.71895500E+04</totfact>
</mgrwt>
</event>
<event>
 6    0  0.1539497E-004  0.4144876E+03  0.7546771E-02  0.1038875E+00
         21   -1    0    0  502  501  0.00000000000E+00  0.00000000000E+00  0.66897928810E+02  0.66897928810E+02  0.00000000000E+00 0. -1.
         21   -1    0    0  501  502 -0.00000000000E+00 -0.00000000000E+00 -0.64202288910E+03  0.64202288910E+03  0.00000000000E+00 0. -1.
      99925    2    1    2    0    0  0.64417815937E+02  0.10940696512E+02 -0.41321616190E+03  0.49413878666E+03  0.26297564560E+03 0.  0.
         25    1    3    3    0    0 -0.43649349909E+01 -0.14145868862E+02 -0.18664194924E+03  0.22517078758E+03  0.12509000000E+03 0.  0.
         25    1    3    3    0    0  0.68782750928E+02  0.25086565374E+02 -0.22657421265E+03  0.26896799908E+03  0.12509000000E+03 0.  0.
         25    1    1    2    0    0 -0.64417815937E+02 -0.10940696512E+02 -0.16190879839E+03  0.21478203124E+03  0.12509000000E+03 0.  0.
<mgrwt>
<rscale>  2 0.41448764E+03</rscale>
<asrwt>0</asrwt>
<pdfrwt beam="1">  1       21 0.98379307E-02 0.41448764E+03</pdfrwt>
<pdfrwt beam="2">  1       21 0.94415131E-01 0.41448764E+03</pdfrwt>
<totfact> 0.73073982E+04</totfact>
</mgrwt>
</event>
<event>
 6    0  0.1539497E-004  0.4427809E+03  0.7546771E-02  0.1029897E+00
         21   -1    0    0  502  501  0.00000000000E+00  0.00000000000E+00  0.19844365747E+03  0.19844365747E+03  0.00000000000E+00 0.  1.
         21   -1    0    0  501  502 -0.00000000000E+00 -0.00000000000E+00 -0.24699066771E+03  0.24699066771E+03  0.00000000000E+00 0.  1.
      99925    2    1    2    0    0 -0.90925807531E+02 -0.18942235553E+01 -0.75795898475E+02  0.28839579307E+03  0.26297533093E+03 0.  0.
         25    1    1    2    0    0  0.90925807531E+02  0.18942235553E+01  0.27248888226E+02  0.15703853211E+03  0.12509000000E+03 0.  0.
         25    1    3    3    0    0 -0.25020376739E+02  0.27162290896E+02 -0.13303034339E+02  0.13110411176E+03  0.12509000000E+03 0.  0.
         25    1    3    3    0    0 -0.65905430792E+02 -0.29056514451E+02 -0.62492864136E+02  0.15729168131E+03  0.12509000000E+03 0.  0.
<mgrwt>
<rscale>  2 0.44278090E+03</rscale>
<asrwt>0</asrwt>
<pdfrwt beam="1">  1       21 0.29182891E-01 0.44278090E+03</pdfrwt>
<pdfrwt beam="2">  1       21 0.36322157E-01 0.44278090E+03</pdfrwt>
<totfact> 0.76436644E+04</totfact>
</mgrwt>
</event>
<event>
 6    0  0.1539497E-004  0.4130372E+03  0.7546771E-02  0.1039357E+00
         21   -1    0    0  502  501  0.00000000000E+00  0.00000000000E+00  0.39612836953E+02  0.39612836953E+02  0.00000000000E+00 0. -1.
         21   -1    0    0  501  502 -0.00000000000E+00 -0.00000000000E+00 -0.10766696017E+04  0.10766696017E+04  0.00000000000E+00 0. -1.
      99925    2    1    2    0    0  0.45128669762E+02 -0.40744228567E+02 -0.76016622614E+03  0.80642349096E+03  0.26223933041E+03 0.  0.
         25    1    1    2    0    0 -0.45128669762E+02  0.40744228567E+02 -0.27689053861E+03  0.30985894770E+03  0.12509000000E+03 0.  0.
         25    1    3    3    0    0  0.24237082799E+02 -0.47782918490E+02 -0.47786623205E+03  0.49686445568E+03  0.12509000000E+03 0.  0.
         25    1    3    3    0    0  0.20891586963E+02  0.70386899230E+01 -0.28229999409E+03  0.30955903528E+03  0.12509000000E+03 0.  0.
<mgrwt>
<rscale>  2 0.41303723E+03</rscale>
<asrwt>0</asrwt>
<pdfrwt beam="1">  1       21 0.58254175E-02 0.41303723E+03</pdfrwt>
<pdfrwt beam="2">  1       21 0.15833376E+00 0.41303723E+03</pdfrwt>
<totfact> 0.49140986E+04</totfact>
</mgrwt>
</event>
<event>
 6    0  0.1539497E-004  0.4421341E+03  0.7546771E-02  0.1030094E+00
         21   -1    0    0  502  501  0.00000000000E+00  0.00000000000E+00  0.49739731589E+03  0.49739731589E+03  0.00000000000E+00 0. -1.
         21   -1    0    0  501  502 -0.00000000000E+00 -0.00000000000E+00 -0.98252733766E+02  0.98252733766E+02  0.00000000000E+00 0. -1.
      99925    2    1    2    0    0 -0.32664829447E+02  0.93976921815E+02  0.23497533301E+03  0.36652627662E+03  0.26311490154E+03 0.  0.
         25    1    3    3    0    0  0.98433018553E+01  0.13557629928E+02  0.11562256340E+03  0.17116303687E+03  0.12509000000E+03 0.  0.
         25    1    3    3    0    0 -0.42508131302E+02  0.80419291887E+02  0.11935276961E+03  0.19536323975E+03  0.12509000000E+03 0.  0.
         25    1    1    2    0    0  0.32664829447E+02 -0.93976921815E+02  0.16416924911E+03  0.22912377304E+03  0.12509000000E+03 0.  0.
<mgrwt>
<rscale>  2 0.44213412E+03</rscale>
<asrwt>0</asrwt>
<pdfrwt beam="1">  1       21 0.73146663E-01 0.44213412E+03</pdfrwt>
<pdfrwt beam="2">  1       21 0.14448932E-01 0.44213412E+03</pdfrwt>
<totfact> 0.65340485E+04</totfact>
</mgrwt>
</event>
<event>
 6    0  0.1539497E-004  0.4025624E+03  0.7546771E-02  0.1042896E+00
         21   -1    0    0  502  501  0.00000000000E+00  0.00000000000E+00  0.34588676079E+03  0.34588676079E+03  0.00000000000E+00 0. -1.
         21   -1    0    0  501  502 -0.00000000000E+00 -0.00000000000E+00 -0.11713118491E+03  0.11713118491E+03  0.00000000000E+00 0. -1.
      99925    2    1    2    0    0 -0.78247391395E+01 -0.47353954434E+02  0.13469043091E+03  0.29931277431E+03  0.26295056787E+03 0.  0.
         25    1    1    2    0    0  0.78247391395E+01  0.47353954434E+02  0.94065144969E+02  0.16370517139E+03  0.12509000000E+03 0.  0.
         25    1    3    3    0    0 -0.27359703522E+02 -0.53611024277E+01  0.96916972045E+02  0.16067887965E+03  0.12509000000E+03 0.  0.
         25    1    3    3    0    0  0.19534964382E+02 -0.41992852006E+02  0.37773458867E+02  0.13863389466E+03  0.12509000000E+03 0.  0.
<mgrwt>
<rscale>  2 0.40256242E+03</rscale>
<asrwt>0</asrwt>
<pdfrwt beam="1">  1       21 0.50865700E-01 0.40256242E+03</pdfrwt>
<pdfrwt beam="2">  1       21 0.17225174E-01 0.40256242E+03</pdfrwt>
<totfact> 0.10547616E+05</totfact>
</mgrwt>
</event>
<event>
 6    0  0.1539497E-004  0.4779131E+03  0.7546771E-02  0.1019710E+00
         21   -1    0    0  502  501  0.00000000000E+00  0.00000000000E+00  0.93612382178E+03  0.93612382178E+03  0.00000000000E+00 0. -1.
         21   -1    0    0  501  502 -0.00000000000E+00 -0.00000000000E+00 -0.60996441092E+02  0.60996441092E+02  0.00000000000E+00 0. -1.
      99925    2    1    2    0    0  0.41364945114E+02 -0.10147093645E+03  0.38084705005E+03  0.47561478545E+03  0.26297821008E+03 0.  0.
         25    1    1    2    0    0 -0.41364945114E+02  0.10147093645E+03  0.49428033063E+03  0.52150547742E+03  0.12509000000E+03 0.  0.
         25    1    3    3    0    0  0.40754034600E+02 -0.83375753681E+02  0.24261815120E+03  0.28831143410E+03  0.12509000000E+03 0.  0.
         25    1    3    3    0    0  0.61091051396E+00 -0.18095182766E+02  0.13822889885E+03  0.18730335135E+03  0.12509000000E+03 0.  0.
<mgrwt>
<rscale>  2 0.47791305E+03</rscale>
<asrwt>0</asrwt>
<pdfrwt beam="1">  1       21 0.13766526E+00 0.47791305E+03</pdfrwt>
<pdfrwt beam="2">  1       21 0.89700654E-02 0.47791305E+03</pdfrwt>
<totfact> 0.32970827E+04</totfact>
</mgrwt>
</event>
<event>
 6    0  0.1539497E-004  0.4046565E+03  0.7546771E-02  0.1042179E+00
         21   -1    0    0  502  501  0.00000000000E+00  0.00000000000E+00  0.25062355490E+03  0.25062355490E+03  0.00000000000E+00 0. -1.
         21   -1    0    0  501  502 -0.00000000000E+00 -0.00000000000E+00 -0.16333949631E+03  0.16333949631E+03  0.00000000000E+00 0. -1.
      99925    2    1    2    0    0  0.35861764686E+02  0.38785154922E+02  0.68978757490E+02  0.27694864848E+03  0.26296792675E+03 0.  0.
         25    1    3    3    0    0  0.48215300916E+02 -0.37124223031E+01  0.20437450220E+02  0.13566021817E+03  0.12509000000E+03 0.  0.
         25    1    1    2    0    0 -0.35861764686E+02 -0.38785154922E+02  0.18305301093E+02  0.13701440274E+03  0.12509000000E+03 0.  0.
         25    1    3    3    0    0 -0.12353536230E+02  0.42497577226E+02  0.48541307271E+02  0.14128843031E+03  0.12509000000E+03 0.  0.
<mgrwt>
<rscale>  2 0.40465652E+03</rscale>
<asrwt>0</asrwt>
<pdfrwt beam="1">  1       21 0.36856405E-01 0.40465652E+03</pdfrwt>
<pdfrwt beam="2">  1       21 0.24020514E-01 0.40465652E+03</pdfrwt>
<totfact> 0.10941808E+05</totfact>
</mgrwt>
</event>
<event>
 6    0  0.1539497E-004  0.4472237E+03  0.7546771E-02  0.1028553E+00
         21   -1    0    0  502  501  0.00000000000E+00  0.00000000000E+00  0.36621736605E+02  0.36621736605E+02  0.00000000000E+00 0. -1.
         21   -1    0    0  501  502 -0.00000000000E+00 -0.00000000000E+00 -0.13653711551E+04  0.13653711551E+04  0.00000000000E+00 0. -1.
      99925    2    1    2    0    0  0.23417590755E+02  0.34657421223E+01 -0.52551322064E+03  0.58873014661E+03  0.26434569323E+03 0.  0.
         25    1    3    3    0    0  0.42701716773E+02 -0.16733912418E+02 -0.21678100034E+03  0.25445033042E+03  0.12509000000E+03 0.  0.
         25    1    1    2    0    0 -0.23417590755E+02 -0.34657421223E+01 -0.80323619785E+03  0.81326274510E+03  0.12509000000E+03 0.  0.
         25    1    3    3    0    0 -0.19284126018E+02  0.20199654541E+02 -0.30873222030E+03  0.33427981619E+03  0.12509000000E+03 0.  0.
<mgrwt>
<rscale>  2 0.44722371E+03</rscale>
<asrwt>0</asrwt>
<pdfrwt beam="1">  1       21 0.53855513E-02 0.44722371E+03</pdfrwt>
<pdfrwt beam="2">  1       21 0.20078981E+00 0.44722371E+03</pdfrwt>
<totfact> 0.27928989E+04</totfact>
</mgrwt>
</event>
<event>
 6    0  0.1539497E-004  0.3949067E+03  0.7546771E-02  0.1045558E+00
         21   -1    0    0  502  501  0.00000000000E+00  0.00000000000E+00  0.83325722360E+02  0.83325722360E+02  0.00000000000E+00 0. -1.
         21   -1    0    0  501  502 -0.00000000000E+00 -0.00000000000E+00 -0.46789660873E+03  0.46789660873E+03  0.00000000000E+00 0. -1.
      99925    2    1    2    0    0  0.18163668522E+02  0.20291427030E+02 -0.22950882314E+03  0.35014171935E+03  0.26302711432E+03 0.  0.
         25    1    1    2    0    0 -0.18163668522E+02 -0.20291427030E+02 -0.15506206323E+03  0.20108061174E+03  0.12509000000E+03 0.  0.
         25    1    3    3    0    0 -0.25145567379E+02  0.43736943584E+01 -0.84200588396E+02  0.15293356710E+03  0.12509000000E+03 0.  0.
         25    1    3    3    0    0  0.43309235901E+02  0.15917732672E+02 -0.14530823475E+03  0.19720815225E+03  0.12509000000E+03 0.  0.
<mgrwt>
<rscale>  2 0.39490669E+03</rscale>
<asrwt>0</asrwt>
<pdfrwt beam="1">  1       21 0.12253783E-01 0.39490669E+03</pdfrwt>
<pdfrwt beam="2">  1       21 0.68808324E-01 0.39490669E+03</pdfrwt>
<totfact> 0.10248948E+05</totfact>
</mgrwt>
</event>
<event>
 6    0  0.1539497E-004  0.4785258E+03  0.7546771E-02  0.1019541E+00
         21   -1    0    0  502  501  0.00000000000E+00  0.00000000000E+00  0.14264050626E+03  0.14264050626E+03  0.00000000000E+00 0. -1.
         21   -1    0    0  501  502 -0.00000000000E+00 -0.00000000000E+00 -0.40133568554E+03  0.40133568554E+03  0.00000000000E+00 0. -1.
      99925    2    1    2    0    0  0.64762072719E+02 -0.10170287119E+03 -0.93013118769E+02  0.30390192548E+03  0.26299684404E+03 0.  0.
         25    1    3    3    0    0  0.31917798537E+01 -0.41305004737E+02 -0.73018291720E+02  0.15065015732E+03  0.12509000000E+03 0.  0.
         25    1    3    3    0    0  0.61570292865E+02 -0.60397866457E+02 -0.19994827050E+02  0.15325176816E+03  0.12509000000E+03 0.  0.
         25    1    1    2    0    0 -0.64762072719E+02  0.10170287119E+03 -0.16568206052E+03  0.24007426632E+03  0.12509000000E+03 0.  0.
<mgrwt>
<rscale>  2 0.47852576E+03</rscale>
<asrwt>0</asrwt>
<pdfrwt beam="1">  1       21 0.20976546E-01 0.47852576E+03</pdfrwt>
<pdfrwt beam="2">  1       21 0.59019952E-01 0.47852576E+03</pdfrwt>
<totfact> 0.51896769E+04</totfact>
</mgrwt>
</event>
<event>
 6    0  0.1539497E-004  0.4103783E+03  0.7546771E-02  0.1040244E+00
         21   -1    0    0  502  501  0.00000000000E+00  0.00000000000E+00  0.77006273970E+03  0.77006273970E+03  0.00000000000E+00 0. -1.
         21   -1    0    0  501  502 -0.00000000000E+00 -0.00000000000E+00 -0.54674229276E+02  0.54674229276E+02  0.00000000000E+00 0. -1.
      99925    2    1    2    0    0 -0.45950121609E+02  0.22293942166E+02  0.54463781959E+03  0.60699459815E+03  0.26306587411E+03 0.  0.
         25    1    1    2    0    0  0.45950121609E+02 -0.22293942166E+02  0.17075069083E+03  0.21774237082E+03  0.12509000000E+03 0.  0.
         25    1    3    3    0    0 -0.54920507265E+02  0.24414131526E+02  0.23503626841E+03  0.27295030226E+03  0.12509000000E+03 0.  0.
         25    1    3    3    0    0  0.89703856560E+01 -0.21201893592E+01  0.30960155118E+03  0.33404429589E+03  0.12509000000E+03 0.  0.
<mgrwt>
<rscale>  2 0.41037830E+03</rscale>
<asrwt>0</asrwt>
<pdfrwt beam="1">  1       21 0.11324451E+00 0.41037830E+03</pdfrwt>
<pdfrwt beam="2">  1       21 0.80403283E-02 0.41037830E+03</pdfrwt>
<totfact> 0.67204290E+04</totfact>
</mgrwt>
</event>
<event>
 6    0  0.1539497E-004  0.4368912E+03  0.7546771E-02  0.1031705E+00
         21   -1    0    0  502  501  0.00000000000E+00  0.00000000000E+00  0.46148877419E+03  0.46148877419E+03  0.00000000000E+00 0.  1.
         21   -1    0    0  501  502 -0.00000000000E+00 -0.00000000000E+00 -0.10340118167E+03  0.10340118167E+03  0.00000000000E+00 0.  1.
      99925    2    1    2    0    0 -0.67735335644E+02  0.23981837889E+02  0.14870119652E+03  0.31061967608E+03  0.26307666769E+03 0.  0.
         25    1    3    3    0    0 -0.39792664433E+02  0.21603647332E+02  0.31022779869E+02  0.13660195713E+03  0.12509000000E+03 0.  0.
         25    1    1    2    0    0  0.67735335644E+02 -0.23981837889E+02  0.20938639600E+03  0.25427027977E+03  0.12509000000E+03 0.  0.
         25    1    3    3    0    0 -0.27942671210E+02  0.23781905575E+01  0.11767841665E+03  0.17401771895E+03  0.12509000000E+03 0.  0.
<mgrwt>
<rscale>  2 0.43689122E+03</rscale>
<asrwt>0</asrwt>
<pdfrwt beam="1">  1       21 0.67865995E-01 0.43689122E+03</pdfrwt>
<pdfrwt beam="2">  1       21 0.15206056E-01 0.43689122E+03</pdfrwt>
<totfact> 0.70453993E+04</totfact>
</mgrwt>
</event>
<event>
 6    0  0.1539497E-004  0.3967916E+03  0.7546771E-02  0.1044896E+00
         21   -1    0    0  502  501  0.00000000000E+00  0.00000000000E+00  0.30463962186E+02  0.30463962186E+02  0.00000000000E+00 0. -1.
         21   -1    0    0  501  502 -0.00000000000E+00 -0.00000000000E+00 -0.12920478717E+04  0.12920478717E+04  0.00000000000E+00 0. -1.
      99925    2    1    2    0    0  0.21198851430E+02 -0.24228144861E+02 -0.91640409933E+03  0.95395654120E+03  0.26305933729E+03 0.  0.
         25    1    1    2    0    0 -0.21198851430E+02  0.24228144861E+02 -0.34517981021E+03  0.36855529271E+03  0.12509000000E+03 0.  0.
         25    1    3    3    0    0  0.48871820966E+02 -0.92618470592E+01 -0.41860038763E+03  0.43971357646E+03  0.12509000000E+03 0.  0.
         25    1    3    3    0    0 -0.27672969536E+02 -0.14966297802E+02 -0.49780371170E+03  0.51424296475E+03  0.12509000000E+03 0.  0.
<mgrwt>
<rscale>  2 0.39679162E+03</rscale>
<asrwt>0</asrwt>
<pdfrwt beam="1">  1       21 0.44799943E-02 0.39679162E+03</pdfrwt>
<pdfrwt beam="2">  1       21 0.19000704E+00 0.39679162E+03</pdfrwt>
<totfact> 0.46049565E+04</totfact>
</mgrwt>
</event>
<event>
 6    0  0.1539497E-004  0.4187179E+03  0.7546771E-02  0.1037484E+00
         21   -1    0    0  502  501  0.00000000000E+00  0.00000000000E+00  0.20164897725E+03  0.20164897725E+03  0.00000000000E+00 0.  1.
         21   -1    0    0  501  502 -0.00000000000E+00 -0.00000000000E+00 -0.21736368032E+03  0.21736368032E+03  0.00000000000E+00 0.  1.
      99925    2    1    2    0    0  0.26910799294E+02 -0.18071734365E+01  0.58873730673E+02  0.27089648849E+03  0.26304245725E+03 0.  0.
         25    1    1    2    0    0 -0.26910799294E+02  0.18071734365E+01 -0.74588433743E+02  0.14811616908E+03  0.12509000000E+03 0.  0.
         25    1    3    3    0    0  0.16401909911E+02  0.23241223565E+02  0.62801149955E+02  0.14283091282E+03  0.12509000000E+03 0.  0.
         25    1    3    3    0    0  0.10508889383E+02 -0.25048397001E+02 -0.39274192816E+01  0.12806557567E+03  0.12509000000E+03 0.  0.
<mgrwt>
<rscale>  2 0.41871787E+03</rscale>
<asrwt>0</asrwt>
<pdfrwt beam="1">  1       21 0.29654261E-01 0.41871787E+03</pdfrwt>
<pdfrwt beam="2">  1       21 0.31965247E-01 0.41871787E+03</pdfrwt>
<totfact> 0.96257743E+04</totfact>
</mgrwt>
</event>
<event>
 6    0  0.1539497E-004  0.4174112E+03  0.7546771E-02  0.1037912E+00
         21   -1    0    0  502  501  0.00000000000E+00  0.00000000000E+00  0.25283697338E+02  0.25283697338E+02  0.00000000000E+00 0.  1.
         21   -1    0    0  501  502 -0.00000000000E+00 -0.00000000000E+00 -0.17227710297E+04  0.17227710297E+04  0.00000000000E+00 0.  1.
      99925    2    1    2    0    0 -0.43240892034E+02 -0.47270039443E+02 -0.12520614570E+04  0.12809830517E+04  0.26297424824E+03 0.  0.
         25    1    3    3    0    0 -0.38933472695E+01 -0.32294945274E+02 -0.78751086358E+03  0.79804698484E+03  0.12509000000E+03 0.  0.
         25    1    3    3    0    0 -0.39347544764E+02 -0.14975094169E+02 -0.46455059342E+03  0.48293606685E+03  0.12509000000E+03 0.  0.
         25    1    1    2    0    0  0.43240892034E+02  0.47270039443E+02 -0.44542587540E+03  0.46707167539E+03  0.12509000000E+03 0.  0.
<mgrwt>
<rscale>  2 0.41741117E+03</rscale>
<asrwt>0</asrwt>
<pdfrwt beam="1">  1       21 0.37181905E-02 0.41741117E+03</pdfrwt>
<pdfrwt beam="2">  1       21 0.25334870E+00 0.41741117E+03</pdfrwt>
<totfact> 0.24750754E+04</totfact>
</mgrwt>
</event>
<event>
 6    0  0.1539497E-004  0.4302856E+03  0.7546771E-02  0.1033770E+00
         21   -1    0    0  502  501  0.00000000000E+00  0.00000000000E+00  0.54684445305E+03  0.54684445305E+03  0.00000000000E+00 0.  1.
         21   -1    0    0  501  502 -0.00000000000E+00 -0.00000000000E+00 -0.84642751886E+02  0.84642751886E+02  0.00000000000E+00 0.  1.
      99925    2    1    2    0    0 -0.81104641253E+00 -0.86376804517E+02  0.27396413920E+03  0.38953163465E+03  0.26309111478E+03 0.  0.
         25    1    3    3    0    0  0.39644296798E+02 -0.36834708220E+02  0.12914368271E+03  0.18776065850E+03  0.12509000000E+03 0.  0.
         25    1    1    2    0    0  0.81104641253E+00  0.86376804517E+02  0.18823756197E+03  0.24195557029E+03  0.12509000000E+03 0.  0.
         25    1    3    3    0    0 -0.40455343211E+02 -0.49542096298E+02  0.14482045649E+03  0.20177097615E+03  0.12509000000E+03 0.  0.
<mgrwt>
<rscale>  2 0.43028558E+03</rscale>
<asrwt>0</asrwt>
<pdfrwt beam="1">  1       21 0.80418301E-01 0.43028558E+03</pdfrwt>
<pdfrwt beam="2">  1       21 0.12447464E-01 0.43028558E+03</pdfrwt>
<totfact> 0.69346662E+04</totfact>
</mgrwt>
</event>
<event>
 6    0  0.1539497E-004  0.4574955E+03  0.7546771E-02  0.1025510E+00
         21   -1    0    0  502  501  0.00000000000E+00  0.00000000000E+00  0.27217258747E+03  0.27217258747E+03  0.00000000000E+00 0. -1.
         21   -1    0    0  501  502 -0.00000000000E+00 -0.00000000000E+00 -0.19225130550E+03  0.19225130550E+03  0.00000000000E+00 0. -1.
      99925    2    1    2    0    0 -0.35490362282E+02 -0.98217595213E+02  0.10029790253E+03  0.30020155409E+03  0.26297346255E+03 0.  0.
         25    1    1    2    0    0  0.35490362282E+02  0.98217595213E+02 -0.20376620555E+02  0.16422233889E+03  0.12509000000E+03 0.  0.
         25    1    3    3    0    0  0.11165359213E+01 -0.77004199741E+02  0.27616009962E+02  0.14946921267E+03  0.12509000000E+03 0.  0.
         25    1    3    3    0    0 -0.36606898203E+02 -0.21213395471E+02  0.72681892564E+02  0.15073234142E+03  0.12509000000E+03 0.  0.
<mgrwt>
<rscale>  2 0.45749551E+03</rscale>
<asrwt>0</asrwt>
<pdfrwt beam="1">  1       21 0.40025381E-01 0.45749551E+03</pdfrwt>
<pdfrwt beam="2">  1       21 0.28272251E-01 0.45749551E+03</pdfrwt>
<totfact> 0.66523398E+04</totfact>
</mgrwt>
</event>
<event>
 6    0  0.1539497E-004  0.3998255E+03  0.7546771E-02  0.1043840E+00
         21   -1    0    0  502  501  0.00000000000E+00  0.00000000000E+00  0.12515428292E+03  0.12515428292E+03  0.00000000000E+00 0. -1.
         21   -1    0    0  501  502 -0.00000000000E+00 -0.00000000000E+00 -0.31932674189E+03  0.31932674189E+03  0.00000000000E+00 0. -1.
      99925    2    1    2    0    0  0.20735948903E+02 -0.14732813317E+02 -0.88145179671E+02  0.27854029015E+03  0.26299826078E+03 0.  0.
         25    1    3    3    0    0  0.22939502204E+02  0.19267339004E+00 -0.84120262586E+02  0.15247945620E+03  0.12509000000E+03 0.  0.
         25    1    3    3    0    0 -0.22035533011E+01 -0.14925486707E+02 -0.40249170851E+01  0.12606083396E+03  0.12509000000E+03 0.  0.
         25    1    1    2    0    0 -0.20735948903E+02  0.14732813317E+02 -0.10602727930E+03  0.16594073466E+03  0.12509000000E+03 0.  0.
<mgrwt>
<rscale>  2 0.39982551E+03</rscale>
<asrwt>0</asrwt>
<pdfrwt beam="1">  1       21 0.18405042E-01 0.39982551E+03</pdfrwt>
<pdfrwt beam="2">  1       21 0.46959815E-01 0.39982551E+03</pdfrwt>
<totfact> 0.11034441E+05</totfact>
</mgrwt>
</event>
<event>
 6    0  0.1539497E-004  0.4132497E+03  0.7546771E-02  0.1039286E+00
         21   -1    0    0  502  501  0.00000000000E+00  0.00000000000E+00  0.10667367610E+03  0.10667367610E+03  0.00000000000E+00 0. -1.
         21   -1    0    0  501  502 -0.00000000000E+00 -0.00000000000E+00 -0.40022835983E+03  0.40022835983E+03  0.00000000000E+00 0. -1.
      99925    2    1    2    0    0 -0.19214816122E+02 -0.21968222960E+02 -0.11902673842E+03  0.29020103508E+03  0.26305410912E+03 0.  0.
         25    1    1    2    0    0  0.19214816122E+02  0.21968222960E+02 -0.17452794530E+03  0.21670100085E+03  0.12509000000E+03 0.  0.
         25    1    3    3    0    0 -0.20469435019E+02 -0.58623703565E+01 -0.17100782392E+02  0.12803636208E+03  0.12509000000E+03 0.  0.
         25    1    3    3    0    0  0.12546188974E+01 -0.16105852604E+02 -0.10192595603E+03  0.16216467300E+03  0.12509000000E+03 0.  0.
<mgrwt>
<rscale>  2 0.41324971E+03</rscale>
<asrwt>0</asrwt>
<pdfrwt beam="1">  1       21 0.15687305E-01 0.41324971E+03</pdfrwt>
<pdfrwt beam="2">  1       21 0.58857112E-01 0.41324971E+03</pdfrwt>
<totfact> 0.91522370E+04</totfact>
</mgrwt>
</event>
<event>
 6    0  0.1539497E-004  0.4040342E+03  0.7546771E-02  0.1042392E+00
         21   -1    0    0  502  501  0.00000000000E+00  0.00000000000E+00  0.76489847997E+03  0.76489847997E+03  0.00000000000E+00 0. -1.
         21   -1    0    0  501  502 -0.00000000000E+00 -0.00000000000E+00 -0.53354670791E+02  0.53354670791E+02  0.00000000000E+00 0. -1.
      99925    2    1    2    0    0 -0.30893726051E+02 -0.37958753635E+02  0.43351941953E+03  0.50948080966E+03  0.26312795180E+03 0.  0.
         25    1    3    3    0    0  0.33041322391E+01 -0.55295693551E+02  0.22136772490E+03  0.26023010730E+03  0.12509000000E+03 0.  0.
         25    1    1    2    0    0  0.30893726051E+02  0.37958753635E+02  0.27802438966E+03  0.30877234110E+03  0.12509000000E+03 0.  0.
         25    1    3    3    0    0 -0.34197858290E+02  0.17336939916E+02  0.21215169462E+03  0.24925070236E+03  0.12509000000E+03 0.  0.
<mgrwt>
<rscale>  2 0.40403419E+03</rscale>
<asrwt>0</asrwt>
<pdfrwt beam="1">  1       21 0.11248506E+00 0.40403419E+03</pdfrwt>
<pdfrwt beam="2">  1       21 0.78462756E-02 0.40403419E+03</pdfrwt>
<totfact> 0.71464819E+04</totfact>
</mgrwt>
</event>
<event>
 6    0  0.1539497E-004  0.4359484E+03  0.7546771E-02  0.1031997E+00
         21   -1    0    0  502  501  0.00000000000E+00  0.00000000000E+00  0.90126542678E+03  0.90126542678E+03  0.00000000000E+00 0.  1.
         21   -1    0    0  501  502 -0.00000000000E+00 -0.00000000000E+00 -0.52717813476E+02  0.52717813476E+02  0.00000000000E+00 0.  1.
      99925    2    1    2    0    0 -0.63836119307E+02 -0.15367673784E+02  0.39647049983E+03  0.48034578381E+03  0.26311974320E+03 0.  0.
         25    1    1    2    0    0  0.63836119307E+02  0.15367673784E+02  0.45207711348E+03  0.47363745645E+03  0.12509000000E+03 0.  0.
         25    1    3    3    0    0 -0.35132225712E+02  0.32513069904E+02  0.18528315219E+03  0.22862354993E+03  0.12509000000E+03 0.  0.
         25    1    3    3    0    0 -0.28703893595E+02 -0.47880743688E+02  0.21118734764E+03  0.25172223388E+03  0.12509000000E+03 0.  0.
<mgrwt>
<rscale>  2 0.43594836E+03</rscale>
<asrwt>0</asrwt>
<pdfrwt beam="1">  1       21 0.13253902E+00 0.43594836E+03</pdfrwt>
<pdfrwt beam="2">  1       21 0.77526202E-02 0.43594836E+03</pdfrwt>
<totfact> 0.47699057E+04</totfact>
</mgrwt>
</event>
<event>
 6    0  0.1539497E-004  0.4446425E+03  0.7546771E-02  0.1029332E+00
         21   -1    0    0  502  501  0.00000000000E+00  0.00000000000E+00  0.72816553525E+02  0.72816553525E+02  0.00000000000E+00 0.  1.
         21   -1    0    0  501  502 -0.00000000000E+00 -0.00000000000E+00 -0.67878440417E+03  0.67878440417E+03  0.00000000000E+00 0.  1.
      99925    2    1    2    0    0 -0.17017508416E+02 -0.89210232035E+02 -0.46773350649E+03  0.54422616874E+03  0.26298180269E+03 0.  0.
         25    1    1    2    0    0  0.17017508416E+02  0.89210232035E+02 -0.13823434415E+03  0.20737478896E+03  0.12509000000E+03 0.  0.
         25    1    3    3    0    0  0.14830215492E+02 -0.65513260366E+02 -0.29405748160E+03  0.32654131922E+03  0.12509000000E+03 0.  0.
         25    1    3    3    0    0 -0.31847723908E+02 -0.23696971668E+02 -0.17367602489E+03  0.21768484951E+03  0.12509000000E+03 0.  0.
<mgrwt>
<rscale>  2 0.44464251E+03</rscale>
<asrwt>0</asrwt>
<pdfrwt beam="1">  1       21 0.10708316E-01 0.44464251E+03</pdfrwt>
<pdfrwt beam="2">  1       21 0.99821244E-01 0.44464251E+03</pdfrwt>
<totfact> 0.54491276E+04</totfact>
</mgrwt>
</event>
<event>
 6    0  0.1539497E-004  0.4274953E+03  0.7546771E-02  0.1034654E+00
         21   -1    0    0  502  501  0.00000000000E+00  0.00000000000E+00  0.16271305266E+03  0.16271305266E+03  0.00000000000E+00 0. -1.
         21   -1    0    0  501  502 -0.00000000000E+00 -0.00000000000E+00 -0.28078919922E+03  0.28078919922E+03  0.00000000000E+00 0. -1.
      99925    2    1    2    0    0 -0.40678687804E+02 -0.72571387132E+02 -0.92765213334E+02  0.29115556399E+03  0.26314409696E+03 0.  0.
         25    1    3    3    0    0  0.11158594389E+02 -0.18610793582E+02 -0.20992897502E+02  0.12868211108E+03  0.12509000000E+03 0.  0.
         25    1    1    2    0    0  0.40678687804E+02  0.72571387132E+02 -0.25310933225E+02  0.15234668789E+03  0.12509000000E+03 0.  0.
         25    1    3    3    0    0 -0.51837282194E+02 -0.53960593550E+02 -0.71772315831E+02  0.16247345291E+03  0.12509000000E+03 0.  0.
<mgrwt>
<rscale>  2 0.42749535E+03</rscale>
<asrwt>0</asrwt>
<pdfrwt beam="1">  1       21 0.23928390E-01 0.42749535E+03</pdfrwt>
<pdfrwt beam="2">  1       21 0.41292529E-01 0.42749535E+03</pdfrwt>
<totfact> 0.86931669E+04</totfact>
</mgrwt>
</event>
<event>
 6    0  0.1539497E-004  0.4332814E+03  0.7546771E-02  0.1032828E+00
         21   -1    0    0  502  501  0.00000000000E+00  0.00000000000E+00  0.18993709951E+03  0.18993709951E+03  0.00000000000E+00 0. -1.
         21   -1    0    0  501  502 -0.00000000000E+00 -0.00000000000E+00 -0.24709862407E+03  0.24709862407E+03  0.00000000000E+00 0. -1.
      99925    2    1    2    0    0  0.78153030557E+02 -0.18141061258E+02 -0.80701573724E+02  0.28657431224E+03  0.26301159318E+03 0.  0.
         25    1    3    3    0    0  0.71788272230E+02 -0.94716935863E+01 -0.16252801769E+02  0.14544734674E+03  0.12509000000E+03 0.  0.
         25    1    1    2    0    0 -0.78153030557E+02  0.18141061258E+02  0.23540049163E+02  0.15046141134E+03  0.12509000000E+03 0.  0.
         25    1    3    3    0    0  0.63647583270E+01 -0.86693676714E+01 -0.64448771955E+02  0.14112696550E+03  0.12509000000E+03 0.  0.
<mgrwt>
<rscale>  2 0.43328141E+03</rscale>
<asrwt>0</asrwt>
<pdfrwt beam="1">  1       21 0.27931926E-01 0.43328141E+03</pdfrwt>
<pdfrwt beam="2">  1       21 0.36338033E-01 0.43328141E+03</pdfrwt>
<totfact> 0.83427798E+04</totfact>
</mgrwt>
</event>
<event>
 6    0  0.1539497E-004  0.4764211E+03  0.7546771E-02  0.1020123E+00
         21   -1    0    0  502  501  0.00000000000E+00  0.00000000000E+00  0.60389968538E+03  0.60389968538E+03  0.00000000000E+00 0.  1.
         21   -1    0    0  501  502 -0.00000000000E+00 -0.00000000000E+00 -0.93963047451E+02  0.93963047451E+02  0.00000000000E+00 0.  1.
      99925    2    1    2    0    0 -0.60424415197E+02  0.15668041214E+02  0.48590289256E+03  0.55601166134E+03  0.26296530015E+03 0.  0.
         25    1    3    3    0    0 -0.33421361026E+02  0.14917803675E+02  0.32677784319E+03  0.35181073767E+03  0.12509000000E+03 0.  0.
         25    1    3    3    0    0 -0.27003054171E+02  0.75023753886E+00  0.15912504936E+03  0.20420092367E+03  0.12509000000E+03 0.  0.
         25    1    1    2    0    0  0.60424415197E+02 -0.15668041214E+02  0.24033745373E+02  0.14185107149E+03  0.12509000000E+03 0.  0.
<mgrwt>
<rscale>  2 0.47642105E+03</rscale>
<asrwt>0</asrwt>
<pdfrwt beam="1">  1       21 0.88808776E-01 0.47642105E+03</pdfrwt>
<pdfrwt beam="2">  1       21 0.13818095E-01 0.47642105E+03</pdfrwt>
<totfact> 0.44943614E+04</totfact>
</mgrwt>
</event>
<event>
 6    0  0.1539497E-004  0.3948565E+03  0.7546771E-02  0.1045575E+00
         21   -1    0    0  502  501  0.00000000000E+00  0.00000000000E+00  0.39356128349E+02  0.39356128349E+02  0.00000000000E+00 0. -1.
         21   -1    0    0  501  502 -0.00000000000E+00 -0.00000000000E+00 -0.99039009490E+03  0.99039009490E+03  0.00000000000E+00 0. -1.
      99925    2    1    2    0    0  0.10738966390E+02 -0.51322847236E+00 -0.55496810581E+03  0.61425703813E+03  0.26307132422E+03 0.  0.
         25    1    3    3    0    0  0.13726068605E+02 -0.36017727092E+02 -0.23756523978E+03  0.27123870092E+03  0.12509000000E+03 0.  0.
         25    1    3    3    0    0 -0.29871022150E+01  0.35504498619E+02 -0.31740286603E+03  0.34301833721E+03  0.12509000000E+03 0.  0.
         25    1    1    2    0    0 -0.10738966390E+02  0.51322847236E+00 -0.39606586074E+03  0.41548918512E+03  0.12509000000E+03 0.  0.
<mgrwt>
<rscale>  2 0.39485653E+03</rscale>
<asrwt>0</asrwt>
<pdfrwt beam="1">  1       21 0.57876666E-02 0.39485653E+03</pdfrwt>
<pdfrwt beam="2">  1       21 0.14564559E+00 0.39485653E+03</pdfrwt>
<totfact> 0.62688845E+04</totfact>
</mgrwt>
</event>
<event>
 6    0  0.1539497E-004  0.4107534E+03  0.7546771E-02  0.1040118E+00
         21   -1    0    0  502  501  0.00000000000E+00  0.00000000000E+00  0.12673840078E+03  0.12673840078E+03  0.00000000000E+00 0.  1.
         21   -1    0    0  501  502 -0.00000000000E+00 -0.00000000000E+00 -0.33280823386E+03  0.33280823386E+03  0.00000000000E+00 0.  1.
      99925    2    1    2    0    0  0.17599934427E+02 -0.11736359004E+02 -0.68793897209E+02  0.27262501875E+03  0.26295303904E+03 0.  0.
         25    1    1    2    0    0 -0.17599934427E+02  0.11736359004E+02 -0.13727593587E+03  0.18692161588E+03  0.12509000000E+03 0.  0.
         25    1    3    3    0    0 -0.16692314920E+02 -0.37246512361E+02 -0.32198603903E+02  0.13546288884E+03  0.12509000000E+03 0.  0.
         25    1    3    3    0    0  0.34292249347E+02  0.25510153357E+02 -0.36595293306E+02  0.13716212991E+03  0.12509000000E+03 0.  0.
<mgrwt>
<rscale>  2 0.41075337E+03</rscale>
<asrwt>0</asrwt>
<pdfrwt beam="1">  1       21 0.18638000E-01 0.41075337E+03</pdfrwt>
<pdfrwt beam="2">  1       21 0.48942387E-01 0.41075337E+03</pdfrwt>
<totfact> 0.98540158E+04</totfact>
</mgrwt>
</event>
<event>
 6    0  0.1539497E-004  0.4434556E+03  0.7546771E-02  0.1029692E+00
         21   -1    0    0  502  501  0.00000000000E+00  0.00000000000E+00  0.12098670141E+04  0.12098670141E+04  0.00000000000E+00 0.  1.
         21   -1    0    0  501  502 -0.00000000000E+00 -0.00000000000E+00 -0.40635224247E+02  0.40635224247E+02  0.00000000000E+00 0.  1.
      99925    2    1    2    0    0  0.34249452243E+02 -0.82153342159E+02  0.88404028121E+03  0.92661352088E+03  0.26298897631E+03 0.  0.
         25    1    3    3    0    0  0.25638831673E+02 -0.50357524609E+02  0.32488977002E+03  0.35269547876E+03  0.12509000000E+03 0.  0.
         25    1    3    3    0    0  0.86106205701E+01 -0.31795817550E+02  0.55915051120E+03  0.57391804212E+03  0.12509000000E+03 0.  0.
         25    1    1    2    0    0 -0.34249452243E+02  0.82153342159E+02  0.28519150869E+03  0.32388871752E+03  0.12509000000E+03 0.  0.
<mgrwt>
<rscale>  2 0.44345560E+03</rscale>
<asrwt>0</asrwt>
<pdfrwt beam="1">  1       21 0.17792160E+00 0.44345560E+03</pdfrwt>
<pdfrwt beam="2">  1       21 0.59757690E-02 0.44345560E+03</pdfrwt>
<totfact> 0.33496483E+04</totfact>
</mgrwt>
</event>
<event>
 6    0  0.1539497E-004  0.4251311E+03  0.7546771E-02  0.1035409E+00
         21   -1    0    0  502  501  0.00000000000E+00  0.00000000000E+00  0.89484640052E+03  0.89484640052E+03  0.00000000000E+00 0.  1.
         21   -1    0    0  501  502 -0.00000000000E+00 -0.00000000000E+00 -0.50493706829E+02  0.50493706829E+02  0.00000000000E+00 0.  1.
      99925    2    1    2    0    0  0.63382855244E+02 -0.47373043332E+02  0.49851402579E+03  0.56915732745E+03  0.26298714401E+03 0.  0.
         25    1    1    2    0    0 -0.63382855244E+02  0.47373043332E+02  0.34583866790E+03  0.37618277990E+03  0.12509000000E+03 0.  0.
         25    1    3    3    0    0  0.12540509641E+02 -0.41911490342E+02  0.18320655781E+03  0.22611056660E+03  0.12509000000E+03 0.  0.
         25    1    3    3    0    0  0.50842345602E+02 -0.54615529901E+01  0.31530746798E+03  0.34304676085E+03  0.12509000000E+03 0.  0.
<mgrwt>
<rscale>  2 0.42513109E+03</rscale>
<asrwt>0</asrwt>
<pdfrwt beam="1">  1       21 0.13159505E+00 0.42513109E+03</pdfrwt>
<pdfrwt beam="2">  1       21 0.74255457E-02 0.42513109E+03</pdfrwt>
<totfact> 0.52578308E+04</totfact>
</mgrwt>
</event>
<event>
 6    0  0.1539497E-004  0.3965406E+03  0.7546771E-02  0.1044984E+00
         21   -1    0    0  502  501  0.00000000000E+00  0.00000000000E+00  0.35470802215E+02  0.35470802215E+02  0.00000000000E+00 0. -1.
         21   -1    0    0  501  502 -0.00000000000E+00 -0.00000000000E+00 -0.11082670434E+04  0.11082670434E+04  0.00000000000E+00 0. -1.
      99925    2    1    2    0    0  0.20631056165E+02  0.11614650400E+02 -0.63292746750E+03  0.68581581432E+03  0.26303157885E+03 0.  0.
         25    1    1    2    0    0 -0.20631056165E+02 -0.11614650400E+02 -0.43986877369E+03  0.45792203130E+03  0.12509000000E+03 0.  0.
         25    1    3    3    0    0  0.33819091297E+02 -0.26634704268E+02 -0.30018793858E+03  0.32804488257E+03  0.12509000000E+03 0.  0.
         25    1    3    3    0    0 -0.13188035132E+02  0.38249354668E+02 -0.33273952891E+03  0.35777093175E+03  0.12509000000E+03 0.  0.
<mgrwt>
<rscale>  2 0.39654065E+03</rscale>
<asrwt>0</asrwt>
<pdfrwt beam="1">  1       21 0.52162954E-02 0.39654065E+03</pdfrwt>
<pdfrwt beam="2">  1       21 0.16298042E+00 0.39654065E+03</pdfrwt>
<totfact> 0.55156378E+04</totfact>
</mgrwt>
</event>
<event>
 6    0  0.1539497E-004  0.4509506E+03  0.7546771E-02  0.1027439E+00
         21   -1    0    0  502  501  0.00000000000E+00  0.00000000000E+00  0.29046793980E+03  0.29046793980E+03  0.00000000000E+00 0. -1.
         21   -1    0    0  501  502 -0.00000000000E+00 -0.00000000000E+00 -0.17502482927E+03  0.17502482927E+03  0.00000000000E+00 0. -1.
      99925    2    1    2    0    0 -0.10296732393E+03  0.29351601890E+02  0.53057639165E+02  0.28941539554E+03  0.26359509057E+03 0.  0.
         25    1    1    2    0    0  0.10296732393E+03 -0.29351601890E+02  0.62385471371E+02  0.17607737353E+03  0.12509000000E+03 0.  0.
         25    1    3    3    0    0 -0.71272114185E+02  0.18037782219E+01 -0.76192272334E+01  0.14418227561E+03  0.12509000000E+03 0.  0.
         25    1    3    3    0    0 -0.31695209747E+02  0.27547823668E+02  0.60676866398E+02  0.14523311993E+03  0.12509000000E+03 0.  0.
<mgrwt>
<rscale>  2 0.45095056E+03</rscale>
<asrwt>0</asrwt>
<pdfrwt beam="1">  1       21 0.42715873E-01 0.45095056E+03</pdfrwt>
<pdfrwt beam="2">  1       21 0.25738946E-01 0.45095056E+03</pdfrwt>
<totfact> 0.69993970E+04</totfact>
</mgrwt>
</event>
<event>
 6    0  0.1539497E-004  0.3968711E+03  0.7546771E-02  0.1044869E+00
         21   -1    0    0  502  501  0.00000000000E+00  0.00000000000E+00  0.21771174040E+03  0.21771174040E+03  0.00000000000E+00 0.  1.
         21   -1    0    0  501  502 -0.00000000000E+00 -0.00000000000E+00 -0.18086605218E+03  0.18086605218E+03  0.00000000000E+00 0.  1.
      99925    2    1    2    0    0 -0.29563583125E+02 -0.25750473214E+02  0.25014443917E+02  0.26695492694E+03  0.26287281772E+03 0.  0.
         25    1    3    3    0    0 -0.45649968608E+02  0.13047975970E+02  0.14606389928E+02  0.13459206528E+03  0.12509000000E+03 0.  0.
         25    1    3    3    0    0  0.16086385484E+02 -0.38798449183E+02  0.10408053989E+02  0.13236286165E+03  0.12509000000E+03 0.  0.
         25    1    1    2    0    0  0.29563583125E+02  0.25750473214E+02  0.11831244296E+02  0.13162286564E+03  0.12509000000E+03 0.  0.
<mgrwt>
<rscale>  2 0.39687108E+03</rscale>
<asrwt>0</asrwt>
<pdfrwt beam="1">  1       21 0.32016433E-01 0.39687108E+03</pdfrwt>
<pdfrwt beam="2">  1       21 0.26597949E-01 0.39687108E+03</pdfrwt>
<totfact> 0.11936787E+05</totfact>
</mgrwt>
</event>
<event>
 6    0  0.1539497E-004  0.4410101E+03  0.7546771E-02  0.1030437E+00
         21   -1    0    0  502  501  0.00000000000E+00  0.00000000000E+00  0.32807940108E+03  0.32807940108E+03  0.00000000000E+00 0.  1.
         21   -1    0    0  501  502 -0.00000000000E+00 -0.00000000000E+00 -0.14820338117E+03  0.14820338117E+03  0.00000000000E+00 0.  1.
      99925    2    1    2    0    0  0.94347202221E+02 -0.28540136850E+02  0.12880290298E+03  0.30903474684E+03  0.26305199668E+03 0.  0.
         25    1    3    3    0    0  0.13184361342E+02 -0.24775360649E+02  0.35229349221E+02  0.13295210049E+03  0.12509000000E+03 0.  0.
         25    1    1    2    0    0 -0.94347202221E+02  0.28540136850E+02  0.51073116926E+02  0.16724803542E+03  0.12509000000E+03 0.  0.
         25    1    3    3    0    0  0.81162840879E+02 -0.37647762003E+01  0.93573553761E+02  0.17608264634E+03  0.12509000000E+03 0.  0.
<mgrwt>
<rscale>  2 0.44101010E+03</rscale>
<asrwt>0</asrwt>
<pdfrwt beam="1">  1       21 0.48246970E-01 0.44101010E+03</pdfrwt>
<pdfrwt beam="2">  1       21 0.21794615E-01 0.44101010E+03</pdfrwt>
<totfact> 0.74956369E+04</totfact>
</mgrwt>
</event>
<event>
 6    0  0.1539497E-004  0.4446825E+03  0.7546771E-02  0.1029320E+00
         21   -1    0    0  502  501  0.00000000000E+00  0.00000000000E+00  0.11202224520E+04  0.11202224520E+04  0.00000000000E+00 0. -1.
         21   -1    0    0  501  502 -0.00000000000E+00 -0.00000000000E+00 -0.44130196613E+02  0.44130196613E+02  0.00000000000E+00 0. -1.
      99925    2    1    2    0    0  0.58574988764E+02 -0.82800725111E+02  0.73465977722E+03  0.78684684119E+03  0.26289917049E+03 0.  0.
         25    1    1    2    0    0 -0.58574988764E+02  0.82800725111E+02  0.34143247818E+03  0.37750580743E+03  0.12509000000E+03 0.  0.
         25    1    3    3    0    0  0.32106558711E+02  0.69813252917E-01  0.35437233924E+03  0.37717117984E+03  0.12509000000E+03 0.  0.
         25    1    3    3    0    0  0.26468430053E+02 -0.82870538364E+02  0.38028743798E+03  0.40967566135E+03  0.12509000000E+03 0.  0.
<mgrwt>
<rscale>  2 0.44468253E+03</rscale>
<asrwt>0</asrwt>
<pdfrwt beam="1">  1       21 0.16473858E+00 0.44468253E+03</pdfrwt>
<pdfrwt beam="2">  1       21 0.64897355E-02 0.44468253E+03</pdfrwt>
<totfact> 0.36124966E+04</totfact>
</mgrwt>
</event>
<event>
 6    0  0.1539497E-004  0.4144445E+03  0.7546771E-02  0.1038890E+00
         21   -1    0    0  502  501  0.00000000000E+00  0.00000000000E+00  0.31826656949E+03  0.31826656949E+03  0.00000000000E+00 0.  1.
         21   -1    0    0  501  502 -0.00000000000E+00 -0.00000000000E+00 -0.13492165017E+03  0.13492165017E+03  0.00000000000E+00 0.  1.
      99925    2    1    2    0    0 -0.59054220236E+02  0.34682007323E+02  0.12101276244E+03  0.29755066494E+03  0.26306285746E+03 0.  0.
         25    1    1    2    0    0  0.59054220236E+02 -0.34682007323E+02  0.62332156884E+02  0.15563755473E+03  0.12509000000E+03 0.  0.
         25    1    3    3    0    0  0.52010089917E+01  0.39003584748E+02  0.57563465510E+02  0.14321100090E+03  0.12509000000E+03 0.  0.
         25    1    3    3    0    0 -0.64255229228E+02 -0.43215774255E+01  0.63449296928E+02  0.15433966404E+03  0.12509000000E+03 0.  0.
<mgrwt>
<rscale>  2 0.41444445E+03</rscale>
<asrwt>0</asrwt>
<pdfrwt beam="1">  1       21 0.46803907E-01 0.41444445E+03</pdfrwt>
<pdfrwt beam="2">  1       21 0.19841419E-01 0.41444445E+03</pdfrwt>
<totfact> 0.96112012E+04</totfact>
</mgrwt>
</event>
<event>
 6    0  0.1539497E-004  0.4481940E+03  0.7546771E-02  0.1028262E+00
         21   -1    0    0  502  501  0.00000000000E+00  0.00000000000E+00  0.93831059305E+02  0.93831059305E+02  0.00000000000E+00 0.  1.
         21   -1    0    0  501  502 -0.00000000000E+00 -0.00000000000E+00 -0.53521156544E+03  0.53521156544E+03  0.00000000000E+00 0.  1.
      99925    2    1    2    0    0  0.10133824337E+03  0.30030581925E+02 -0.25938726878E+03  0.38421549805E+03  0.26299908426E+03 0.  0.
         25    1    3    3    0    0  0.69865695189E+02  0.39782744603E+02 -0.10118639928E+03  0.17986127329E+03  0.12509000000E+03 0.  0.
         25    1    1    2    0    0 -0.10133824337E+03 -0.30030581925E+02 -0.18199323736E+03  0.24482712669E+03  0.12509000000E+03 0.  0.
         25    1    3    3    0    0  0.31472548184E+02 -0.97521626775E+01 -0.15820086950E+03  0.20435422476E+03  0.12509000000E+03 0.  0.
<mgrwt>
<rscale>  2 0.44819401E+03</rscale>
<asrwt>0</asrwt>
<pdfrwt beam="1">  1       21 0.13798685E-01 0.44819401E+03</pdfrwt>
<pdfrwt beam="2">  1       21 0.78707582E-01 0.44819401E+03</pdfrwt>
<totfact> 0.60089153E+04</totfact>
</mgrwt>
</event>
<event>
 6    0  0.2307860E-004  0.3986927E+03  0.7546771E-02  0.1044233E+00
         21   -1    0    0  502  501  0.00000000000E+00  0.00000000000E+00  0.94643055407E+02  0.94643055407E+02  0.00000000000E+00 0.  1.
         21   -1    0    0  501  502 -0.00000000000E+00 -0.00000000000E+00 -0.41988258475E+03  0.41988258475E+03  0.00000000000E+00 0.  1.
      99925    2    1    2    0    0  0.26688180199E+02  0.14567777064E+01 -0.26187256903E+03  0.37177669647E+03  0.26253816574E+03 0.  0.
         25    1    3    3    0    0  0.21393688862E+02 -0.37883510197E+02 -0.12397868395E+03  0.18141409108E+03  0.12509000000E+03 0.  0.
         25    1    3    3    0    0  0.52944913376E+01  0.39340287903E+02 -0.13789388507E+03  0.19036260539E+03  0.12509000000E+03 0.  0.
         25    1    1    2    0    0 -0.26688180199E+02 -0.14567777064E+01 -0.63366960318E+02  0.14274894369E+03  0.12509000000E+03 0.  0.
<mgrwt>
<rscale>  2 0.39869272E+03</rscale>
<asrwt>0</asrwt>
<pdfrwt beam="1">  1       21 0.13918097E-01 0.39869272E+03</pdfrwt>
<pdfrwt beam="2">  1       21 0.61747438E-01 0.39869272E+03</pdfrwt>
<totfact> 0.10312691E+05</totfact>
</mgrwt>
</event>
<event>
 6    0  0.1539497E-004  0.4338569E+03  0.7546771E-02  0.1032648E+00
         21   -1    0    0  502  501  0.00000000000E+00  0.00000000000E+00  0.59794832583E+02  0.59794832583E+02  0.00000000000E+00 0. -1.
         21   -1    0    0  501  502 -0.00000000000E+00 -0.00000000000E+00 -0.78699024909E+03  0.78699024909E+03  0.00000000000E+00 0. -1.
      99925    2    1    2    0    0  0.84128968721E+01 -0.81065617631E+02 -0.38369409578E+03  0.47224125695E+03  0.26296051878E+03 0.  0.
         25    1    1    2    0    0 -0.84128968721E+01  0.81065617631E+02 -0.34350132073E+03  0.37454382472E+03  0.12509000000E+03 0.  0.
         25    1    3    3    0    0 -0.31173456663E+02 -0.60023473087E+02 -0.18900268023E+03  0.23652510005E+03  0.12509000000E+03 0.  0.
         25    1    3    3    0    0  0.39586353535E+02 -0.21042144543E+02 -0.19469141555E+03  0.23571615690E+03  0.12509000000E+03 0.  0.
<mgrwt>
<rscale>  2 0.43385689E+03</rscale>
<asrwt>0</asrwt>
<pdfrwt beam="1">  1       21 0.87933574E-02 0.43385689E+03</pdfrwt>
<pdfrwt beam="2">  1       21 0.11573387E+00 0.43385689E+03</pdfrwt>
<totfact> 0.53996920E+04</totfact>
</mgrwt>
</event>
<event>
 6    0  0.1539497E-004  0.3995636E+03  0.7546771E-02  0.1043931E+00
         21   -1    0    0  502  501  0.00000000000E+00  0.00000000000E+00  0.42628697599E+02  0.42628697599E+02  0.00000000000E+00 0.  1.
         21   -1    0    0  501  502 -0.00000000000E+00 -0.00000000000E+00 -0.93628872687E+03  0.93628872687E+03  0.00000000000E+00 0.  1.
      99925    2    1    2    0    0  0.10007945612E+02  0.22548239163E+02 -0.50608559845E+03  0.57091003533E+03  0.26307233496E+03 0.  0.
         25    1    1    2    0    0 -0.10007945612E+02 -0.22548239163E+02 -0.38757443082E+03  0.40800738914E+03  0.12509000000E+03 0.  0.
         25    1    3    3    0    0  0.36617072435E+02  0.33819330424E+02 -0.23200633224E+03  0.26825175378E+03  0.12509000000E+03 0.  0.
         25    1    3    3    0    0 -0.26609126823E+02 -0.11271091261E+02 -0.27407926621E+03  0.30265828155E+03  0.12509000000E+03 0.  0.
<mgrwt>
<rscale>  2 0.39956361E+03</rscale>
<asrwt>0</asrwt>
<pdfrwt beam="1">  1       21 0.62689267E-02 0.39956361E+03</pdfrwt>
<pdfrwt beam="2">  1       21 0.13768951E+00 0.39956361E+03</pdfrwt>
<totfact> 0.63273282E+04</totfact>
</mgrwt>
</event>
<event>
 6    0  0.1539497E-004  0.4592966E+03  0.7546771E-02  0.1024985E+00
         21   -1    0    0  502  501  0.00000000000E+00  0.00000000000E+00  0.20789244812E+03  0.20789244812E+03  0.00000000000E+00 0. -1.
         21   -1    0    0  501  502 -0.00000000000E+00 -0.00000000000E+00 -0.25368087031E+03  0.25368087031E+03  0.00000000000E+00 0. -1.
      99925    2    1    2    0    0  0.11352291615E+03 -0.22153972786E+02 -0.47387211662E+02  0.29119633868E+03  0.26300476959E+03 0.  0.
         25    1    1    2    0    0 -0.11352291615E+03  0.22153972786E+02  0.15987894707E+01  0.17037697975E+03  0.12509000000E+03 0.  0.
         25    1    3    3    0    0  0.10007123602E+03 -0.17920105945E+02 -0.32510677845E+02  0.16443793586E+03  0.12509000000E+03 0.  0.
         25    1    3    3    0    0  0.13451680129E+02 -0.42338668415E+01 -0.14876533817E+02  0.12675840282E+03  0.12509000000E+03 0.  0.
<mgrwt>
<rscale>  2 0.45929658E+03</rscale>
<asrwt>0</asrwt>
<pdfrwt beam="1">  1       21 0.30572419E-01 0.45929658E+03</pdfrwt>
<pdfrwt beam="2">  1       21 0.37306010E-01 0.45929658E+03</pdfrwt>
<totfact> 0.65782729E+04</totfact>
</mgrwt>
</event>
<event>
 6    0  0.1539497E-004  0.4509901E+03  0.7546771E-02  0.1027427E+00
         21   -1    0    0  502  501  0.00000000000E+00  0.00000000000E+00  0.79334131418E+02  0.79334131418E+02  0.00000000000E+00 0.  1.
         21   -1    0    0  501  502 -0.00000000000E+00 -0.00000000000E+00 -0.64093485398E+03  0.64093485398E+03  0.00000000000E+00 0.  1.
      99925    2    1    2    0    0 -0.25157211165E+02 -0.94428757786E+02 -0.43304018166E+03  0.51600201218E+03  0.26302966006E+03 0.  0.
         25    1    1    2    0    0  0.25157211165E+02  0.94428757786E+02 -0.12856054091E+03  0.20426697322E+03  0.12509000000E+03 0.  0.
         25    1    3    3    0    0 -0.37443813154E+02 -0.79443137097E+02 -0.26015054875E+03  0.30172680903E+03  0.12509000000E+03 0.  0.
         25    1    3    3    0    0  0.12286601989E+02 -0.14985620689E+02 -0.17288963292E+03  0.21427520315E+03  0.12509000000E+03 0.  0.
<mgrwt>
<rscale>  2 0.45099007E+03</rscale>
<asrwt>0</asrwt>
<pdfrwt beam="1">  1       21 0.11666784E-01 0.45099007E+03</pdfrwt>
<pdfrwt beam="2">  1       21 0.94255128E-01 0.45099007E+03</pdfrwt>
<totfact> 0.53483308E+04</totfact>
</mgrwt>
</event>
<event>
 6    0  0.1539497E-004  0.4139515E+03  0.7546771E-02  0.1039053E+00
         21   -1    0    0  502  501  0.00000000000E+00  0.00000000000E+00  0.57039819558E+02  0.57039819558E+02  0.00000000000E+00 0. -1.
         21   -1    0    0  501  502 -0.00000000000E+00 -0.00000000000E+00 -0.75103610861E+03  0.75103610861E+03  0.00000000000E+00 0. -1.
      99925    2    1    2    0    0 -0.66333546052E+01  0.58589386943E+02 -0.52122832231E+03  0.58677749599E+03  0.26296796033E+03 0.  0.
         25    1    3    3    0    0 -0.13100265447E+02  0.29646247264E+02 -0.17565149169E+03  0.21806299908E+03  0.12509000000E+03 0.  0.
         25    1    3    3    0    0  0.64669108415E+01  0.28943139679E+02 -0.34557683062E+03  0.36871449691E+03  0.12509000000E+03 0.  0.
         25    1    1    2    0    0  0.66333546052E+01 -0.58589386943E+02 -0.17276796674E+03  0.22129843219E+03  0.12509000000E+03 0.  0.
<mgrwt>
<rscale>  2 0.41395151E+03</rscale>
<asrwt>0</asrwt>
<pdfrwt beam="1">  1       21 0.83882084E-02 0.41395151E+03</pdfrwt>
<pdfrwt beam="2">  1       21 0.11044649E+00 0.41395151E+03</pdfrwt>
<totfact> 0.66282863E+04</totfact>
</mgrwt>
</event>
<event>
 6    0  0.1539497E-004  0.4382110E+03  0.7546771E-02  0.1031297E+00
         21   -1    0    0  502  501  0.00000000000E+00  0.00000000000E+00  0.33011443924E+03  0.33011443924E+03  0.00000000000E+00 0. -1.
         21   -1    0    0  501  502 -0.00000000000E+00 -0.00000000000E+00 -0.14542600242E+03  0.14542600242E+03  0.00000000000E+00 0. -1.
      99925    2    1    2    0    0 -0.89995774723E+01  0.24107158764E+01  0.22201932224E+03  0.34466681158E+03  0.26346883613E+03 0.  0.
         25    1    3    3    0    0 -0.17913730604E+02 -0.24403401606E+02  0.14977674586E+03  0.19747660483E+03  0.12509000000E+03 0.  0.
         25    1    3    3    0    0  0.89141531322E+01  0.26814117482E+02  0.72242576379E+02  0.14719020675E+03  0.12509000000E+03 0.  0.
         25    1    1    2    0    0  0.89995774723E+01 -0.24107158764E+01 -0.37330885419E+02  0.13087363009E+03  0.12509000000E+03 0.  0.
<mgrwt>
<rscale>  2 0.43821101E+03</rscale>
<asrwt>0</asrwt>
<pdfrwt beam="1">  1       21 0.48546241E-01 0.43821101E+03</pdfrwt>
<pdfrwt beam="2">  1       21 0.21386177E-01 0.43821101E+03</pdfrwt>
<totfact> 0.76757052E+04</totfact>
</mgrwt>
</event>
<event>
 6    0  0.1539497E-004  0.4247322E+03  0.7546771E-02  0.1035537E+00
         21   -1    0    0  502  501  0.00000000000E+00  0.00000000000E+00  0.25635967489E+03  0.25635967489E+03  0.00000000000E+00 0.  1.
         21   -1    0    0  501  502 -0.00000000000E+00 -0.00000000000E+00 -0.17592220175E+03  0.17592220175E+03  0.00000000000E+00 0.  1.
      99925    2    1    2    0    0  0.31480953025E+02 -0.35897247996E+02  0.11950312476E+03  0.29280680340E+03  0.26301171927E+03 0.  0.
         25    1    3    3    0    0  0.29093896490E+02 -0.54034451734E+02  0.78380111433E+02  0.15986596497E+03  0.12509000000E+03 0.  0.
         25    1    3    3    0    0  0.23870565350E+01  0.18137203738E+02  0.41123013325E+02  0.13294083843E+03  0.12509000000E+03 0.  0.
         25    1    1    2    0    0 -0.31480953025E+02  0.35897247996E+02 -0.39065651624E+02  0.13947507323E+03  0.12509000000E+03 0.  0.
<mgrwt>
<rscale>  2 0.42473219E+03</rscale>
<asrwt>0</asrwt>
<pdfrwt beam="1">  1       21 0.37699952E-01 0.42473219E+03</pdfrwt>
<pdfrwt beam="2">  1       21 0.25870912E-01 0.42473219E+03</pdfrwt>
<totfact> 0.90105204E+04</totfact>
</mgrwt>
</event>
<event>
 6    0  0.1539497E-004  0.4156562E+03  0.7546771E-02  0.1038489E+00
         21   -1    0    0  502  501  0.00000000000E+00  0.00000000000E+00  0.24347010020E+03  0.24347010020E+03  0.00000000000E+00 0. -1.
         21   -1    0    0  501  502 -0.00000000000E+00 -0.00000000000E+00 -0.17740380725E+03  0.17740380725E+03  0.00000000000E+00 0. -1.
      99925    2    1    2    0    0 -0.42995060781E+02  0.26600490191E+02  0.92897038948E+02  0.28331098236E+03  0.26282901581E+03 0.  0.
         25    1    3    3    0    0 -0.42830033339E+01  0.46046642178E+02  0.63482987501E+02  0.14770319961E+03  0.12509000000E+03 0.  0.
         25    1    1    2    0    0  0.42995060781E+02 -0.26600490191E+02 -0.26830746000E+02  0.13756292510E+03  0.12509000000E+03 0.  0.
         25    1    3    3    0    0 -0.38712057447E+02 -0.19446151987E+02  0.29414051448E+02  0.13560778275E+03  0.12509000000E+03 0.  0.
<mgrwt>
<rscale>  2 0.41565622E+03</rscale>
<asrwt>0</asrwt>
<pdfrwt beam="1">  1       21 0.35804427E-01 0.41565622E+03</pdfrwt>
<pdfrwt beam="2">  1       21 0.26088795E-01 0.41565622E+03</pdfrwt>
<totfact> 0.98623397E+04</totfact>
</mgrwt>
</event>
<event>
 6    0  0.1539497E-004  0.4133160E+03  0.7546771E-02  0.1039264E+00
         21   -1    0    0  502  501  0.00000000000E+00  0.00000000000E+00  0.27987348778E+04  0.27987348778E+04  0.00000000000E+00 0.  1.
         21   -1    0    0  501  502 -0.00000000000E+00 -0.00000000000E+00 -0.15259582317E+02  0.15259582317E+02  0.00000000000E+00 0.  1.
      99925    2    1    2    0    0  0.25634645141E+02 -0.57375105492E+02  0.19836385530E+04  0.20019997800E+04  0.26312007247E+03 0.  0.
         25    1    1    2    0    0 -0.25634645141E+02  0.57375105492E+02  0.79983674247E+03  0.81199468007E+03  0.12509000000E+03 0.  0.
         25    1    3    3    0    0 -0.26363437982E+02 -0.26384677626E+02  0.10478711759E+04  0.10559700239E+04  0.12509000000E+03 0.  0.
         25    1    3    3    0    0  0.51998083123E+02 -0.30990427866E+02  0.93576737711E+03  0.94602975611E+03  0.12509000000E+03 0.  0.
<mgrwt>
<rscale>  2 0.41331598E+03</rscale>
<asrwt>0</asrwt>
<pdfrwt beam="1">  1       21 0.41157830E+00 0.41331598E+03</pdfrwt>
<pdfrwt beam="2">  1       21 0.22440582E-02 0.41331598E+03</pdfrwt>
<totfact> 0.62038592E+03</totfact>
</mgrwt>
</event>
<event>
 6    0  0.1539497E-004  0.4206023E+03  0.7546771E-02  0.1036870E+00
         21   -1    0    0  502  501  0.00000000000E+00  0.00000000000E+00  0.35054072038E+03  0.35054072038E+03  0.00000000000E+00 0. -1.
         21   -1    0    0  501  502 -0.00000000000E+00 -0.00000000000E+00 -0.12616673255E+03  0.12616673255E+03  0.00000000000E+00 0. -1.
      99925    2    1    2    0    0 -0.39126184513E+02  0.58571738818E+02  0.17988385054E+03  0.32641311731E+03  0.26310799411E+03 0.  0.
         25    1    1    2    0    0  0.39126184513E+02 -0.58571738818E+02  0.44490137287E+02  0.15029433562E+03  0.12509000000E+03 0.  0.
         25    1    3    3    0    0  0.17047862127E+02  0.44328782960E+02  0.10037091299E+03  0.16726475683E+03  0.12509000000E+03 0.  0.
         25    1    3    3    0    0 -0.56174046640E+02  0.14242955858E+02  0.79512937542E+02  0.15914836048E+03  0.12509000000E+03 0.  0.
<mgrwt>
<rscale>  2 0.42060232E+03</rscale>
<asrwt>0</asrwt>
<pdfrwt beam="1">  1       21 0.51550106E-01 0.42060232E+03</pdfrwt>
<pdfrwt beam="2">  1       21 0.18553931E-01 0.42060232E+03</pdfrwt>
<totfact> 0.88826080E+04</totfact>
</mgrwt>
</event>
<event>
 5    0  0.2055746E-004  0.4238057E+03  0.7546771E-02  0.1035835E+00
         21   -1    0    0  502  501  0.00000000000E+00  0.00000000000E+00  0.32517273429E+03  0.32517273429E+03  0.00000000000E+00 0.  1.
         21   -1    0    0  501  502 -0.00000000000E+00 -0.00000000000E+00 -0.13808909503E+03  0.13808909503E+03  0.00000000000E+00 0.  1.
         25    1    1    2    0    0 -0.24873556742E+02  0.23700672830E+02  0.57434472852E+02  0.14186839849E+03  0.12509000000E+03 0.  0.
         25    1    1    2    0    0  0.50105636765E+02  0.29707412243E+02  0.97538518149E+01  0.13833203137E+03  0.12509000000E+03 0.  0.
         25    1    1    2    0    0 -0.25232080023E+02 -0.53408085073E+02  0.11989531459E+03  0.18306139946E+03  0.12509000000E+03 0.  0.
<mgrwt>
<rscale>  2 0.42380566E+03</rscale>
<asrwt>0</asrwt>
<pdfrwt beam="1">  1       21 0.47819520E-01 0.42380566E+03</pdfrwt>
<pdfrwt beam="2">  1       21 0.20307220E-01 0.42380566E+03</pdfrwt>
<totfact> 0.87731085E+04</totfact>
</mgrwt>
</event>
<event>
 6    0  0.1539497E-004  0.4258482E+03  0.7546771E-02  0.1035180E+00
         21   -1    0    0  502  501  0.00000000000E+00  0.00000000000E+00  0.87674795870E+02  0.87674795870E+02  0.00000000000E+00 0.  1.
         21   -1    0    0  501  502 -0.00000000000E+00 -0.00000000000E+00 -0.51710042386E+03  0.51710042386E+03  0.00000000000E+00 0.  1.
      99925    2    1    2    0    0  0.68886520171E+01  0.36136375548E+02 -0.17244600684E+03  0.31660977254E+03  0.26296545711E+03 0.  0.
         25    1    3    3    0    0  0.32525241137E+02  0.31293476557E+02 -0.11771819417E+03  0.17760139168E+03  0.12509000000E+03 0.  0.
         25    1    1    2    0    0 -0.68886520171E+01 -0.36136375548E+02 -0.25697962115E+03  0.28816544718E+03  0.12509000000E+03 0.  0.
         25    1    3    3    0    0 -0.25636589120E+02  0.48428989906E+01 -0.54727812665E+02  0.13900838087E+03  0.12509000000E+03 0.  0.
<mgrwt>
<rscale>  2 0.42584821E+03</rscale>
<asrwt>0</asrwt>
<pdfrwt beam="1">  1       21 0.12893352E-01 0.42584821E+03</pdfrwt>
<pdfrwt beam="2">  1       21 0.76044182E-01 0.42584821E+03</pdfrwt>
<totfact> 0.74011217E+04</totfact>
</mgrwt>
</event>
<event>
 6    0  0.1539497E-004  0.4091189E+03  0.7546771E-02  0.1040667E+00
         21   -1    0    0  502  501  0.00000000000E+00  0.00000000000E+00  0.56153154811E+03  0.56153154811E+03  0.00000000000E+00 0.  1.
         21   -1    0    0  501  502 -0.00000000000E+00 -0.00000000000E+00 -0.74518634527E+02  0.74518634527E+02  0.00000000000E+00 0.  1.
      99925    2    1    2    0    0 -0.32999955756E+01 -0.61358669028E+02  0.32349023913E+03  0.42119453482E+03  0.26264638798E+03 0.  0.
         25    1    1    2    0    0  0.32999955756E+01  0.61358669028E+02  0.16352267446E+03  0.21485564781E+03  0.12509000000E+03 0.  0.
         25    1    3    3    0    0 -0.32286009819E+02 -0.34636242458E+02  0.12359632011E+03  0.18211428875E+03  0.12509000000E+03 0.  0.
         25    1    3    3    0    0  0.28986014243E+02 -0.26722426570E+02  0.19989391902E+03  0.23908024608E+03  0.12509000000E+03 0.  0.
<mgrwt>
<rscale>  2 0.40911888E+03</rscale>
<asrwt>0</asrwt>
<pdfrwt beam="1">  1       21 0.82578167E-01 0.40911888E+03</pdfrwt>
<pdfrwt beam="2">  1       21 0.10958623E-01 0.40911888E+03</pdfrwt>
<totfact> 0.82577080E+04</totfact>
</mgrwt>
</event>
<event>
 6    0  0.1539497E-004  0.4156433E+03  0.7546771E-02  0.1038494E+00
         21   -1    0    0  502  501  0.00000000000E+00  0.00000000000E+00  0.23077591680E+03  0.23077591680E+03  0.00000000000E+00 0. -1.
         21   -1    0    0  501  502 -0.00000000000E+00 -0.00000000000E+00 -0.18715052294E+03  0.18715052294E+03  0.00000000000E+00 0. -1.
      99925    2    1    2    0    0 -0.57377576847E+02  0.27779782088E+02  0.57927037082E+02  0.27680256608E+03  0.26305933997E+03 0.  0.
         25    1    3    3    0    0 -0.50466102916E+02 -0.20315107658E+02  0.26042294913E+02  0.13887130865E+03  0.12509000000E+03 0.  0.
         25    1    3    3    0    0 -0.69114739318E+01  0.48094889746E+02  0.31884742169E+02  0.13793125742E+03  0.12509000000E+03 0.  0.
         25    1    1    2    0    0  0.57377576847E+02 -0.27779782088E+02 -0.14301643221E+02  0.14112387366E+03  0.12509000000E+03 0.  0.
<mgrwt>
<rscale>  2 0.41564328E+03</rscale>
<asrwt>0</asrwt>
<pdfrwt beam="1">  1       21 0.33937635E-01 0.41564328E+03</pdfrwt>
<pdfrwt beam="2">  1       21 0.27522136E-01 0.41564328E+03</pdfrwt>
<totfact> 0.98963724E+04</totfact>
</mgrwt>
</event>
<event>
 6    0  0.1539497E-004  0.4701453E+03  0.7546771E-02  0.1021879E+00
         21   -1    0    0  502  501  0.00000000000E+00  0.00000000000E+00  0.43337019873E+03  0.43337019873E+03  0.00000000000E+00 0. -1.
         21   -1    0    0  501  502 -0.00000000000E+00 -0.00000000000E+00 -0.12751029209E+03  0.12751029209E+03  0.00000000000E+00 0. -1.
      99925    2    1    2    0    0  0.92897590670E+02  0.43116966382E+02  0.10066316452E+03  0.29964832164E+03  0.26299621447E+03 0.  0.
         25    1    1    2    0    0 -0.92897590670E+02 -0.43116966382E+02  0.20519674211E+03  0.26123216918E+03  0.12509000000E+03 0.  0.
         25    1    3    3    0    0  0.58605952073E+02  0.10185790839E+02  0.90468477438E+02  0.16544020510E+03  0.12509000000E+03 0.  0.
         25    1    3    3    0    0  0.34291638598E+02  0.32931175544E+02  0.10194687085E+02  0.13420811654E+03  0.12509000000E+03 0.  0.
<mgrwt>
<rscale>  2 0.47014534E+03</rscale>
<asrwt>0</asrwt>
<pdfrwt beam="1">  1       21 0.63730911E-01 0.47014534E+03</pdfrwt>
<pdfrwt beam="2">  1       21 0.18751514E-01 0.47014534E+03</pdfrwt>
<totfact> 0.54344094E+04</totfact>
</mgrwt>
</event>
<event>
 6    0  0.1539497E-004  0.4705616E+03  0.7546771E-02  0.1021762E+00
         21   -1    0    0  502  501  0.00000000000E+00  0.00000000000E+00  0.49166269550E+02  0.49166269550E+02  0.00000000000E+00 0. -1.
         21   -1    0    0  501  502 -0.00000000000E+00 -0.00000000000E+00 -0.11259154035E+04  0.11259154035E+04  0.00000000000E+00 0. -1.
      99925    2    1    2    0    0 -0.12615258054E+03  0.82632815575E+01 -0.63342028872E+03  0.69740947530E+03  0.26301322907E+03 0.  0.
         25    1    1    2    0    0  0.12615258054E+03 -0.82632815575E+01 -0.44332884526E+03  0.47767219779E+03  0.12509000000E+03 0.  0.
         25    1    3    3    0    0 -0.91244418121E+02 -0.18643237868E+02 -0.39340529041E+03  0.42318830889E+03  0.12509000000E+03 0.  0.
         25    1    3    3    0    0 -0.34908162422E+02  0.26906519425E+02 -0.24001499831E+03  0.27422116641E+03  0.12509000000E+03 0.  0.
<mgrwt>
<rscale>  2 0.47056162E+03</rscale>
<asrwt>0</asrwt>
<pdfrwt beam="1">  1       21 0.72303340E-02 0.47056162E+03</pdfrwt>
<pdfrwt beam="2">  1       21 0.16557579E+00 0.47056162E+03</pdfrwt>
<totfact> 0.29245530E+04</totfact>
</mgrwt>
</event>
<event>
 6    0  0.1539497E-004  0.4058686E+03  0.7546771E-02  0.1041766E+00
         21   -1    0    0  502  501  0.00000000000E+00  0.00000000000E+00  0.69225828790E+03  0.69225828790E+03  0.00000000000E+00 0.  1.
         21   -1    0    0  501  502 -0.00000000000E+00 -0.00000000000E+00 -0.59489822866E+02  0.59489822866E+02  0.00000000000E+00 0.  1.
      99925    2    1    2    0    0  0.27495426562E+02  0.22243197188E+01  0.50837197282E+03  0.57319016092E+03  0.26333239782E+03 0.  0.
         25    1    3    3    0    0 -0.11167269175E+02  0.27823190411E+02  0.20858414498E+03  0.24505854701E+03  0.12509000000E+03 0.  0.
         25    1    1    2    0    0 -0.27495426562E+02 -0.22243197188E+01  0.12439649221E+03  0.17855794985E+03  0.12509000000E+03 0.  0.
         25    1    3    3    0    0  0.38662695736E+02 -0.25598870693E+02  0.29978782785E+03  0.32813161391E+03  0.12509000000E+03 0.  0.
<mgrwt>
<rscale>  2 0.40586856E+03</rscale>
<asrwt>0</asrwt>
<pdfrwt beam="1">  1       21 0.10180268E+00 0.40586856E+03</pdfrwt>
<pdfrwt beam="2">  1       21 0.87485038E-02 0.40586856E+03</pdfrwt>
<totfact> 0.75303003E+04</totfact>
</mgrwt>
</event>
<event>
 6    0  0.1539497E-004  0.4172077E+03  0.7546771E-02  0.1037979E+00
         21   -1    0    0  502  501  0.00000000000E+00  0.00000000000E+00  0.14105042910E+03  0.14105042910E+03  0.00000000000E+00 0.  1.
         21   -1    0    0  501  502 -0.00000000000E+00 -0.00000000000E+00 -0.30851064069E+03  0.30851064069E+03  0.00000000000E+00 0.  1.
      99925    2    1    2    0    0 -0.65176001325E+02  0.20237189455E+02 -0.13553999615E+03  0.30353414337E+03  0.26287721592E+03 0.  0.
         25    1    3    3    0    0 -0.69984540884E+02  0.28297159432E+02 -0.75735309374E+02  0.16456582385E+03  0.12509000000E+03 0.  0.
         25    1    3    3    0    0  0.48085395593E+01 -0.80599699778E+01 -0.59804686772E+02  0.13896831951E+03  0.12509000000E+03 0.  0.
         25    1    1    2    0    0  0.65176001325E+02 -0.20237189455E+02 -0.31920215440E+02  0.14602692642E+03  0.12509000000E+03 0.  0.
<mgrwt>
<rscale>  2 0.41720766E+03</rscale>
<asrwt>0</asrwt>
<pdfrwt beam="1">  1       21 0.20742711E-01 0.41720766E+03</pdfrwt>
<pdfrwt beam="2">  1       21 0.45369211E-01 0.41720766E+03</pdfrwt>
<totfact> 0.94230597E+04</totfact>
</mgrwt>
</event>
<event>
 6    0  0.1539497E-004  0.4155024E+03  0.7546771E-02  0.1038540E+00
         21   -1    0    0  502  501  0.00000000000E+00  0.00000000000E+00  0.78648014767E+02  0.78648014767E+02  0.00000000000E+00 0. -1.
         21   -1    0    0  501  502 -0.00000000000E+00 -0.00000000000E+00 -0.54878139040E+03  0.54878139040E+03  0.00000000000E+00 0. -1.
      99925    2    1    2    0    0  0.52417327875E+02 -0.42052312422E+02 -0.27966681579E+03  0.38985627588E+03  0.26316993511E+03 0.  0.
         25    1    1    2    0    0 -0.52417327875E+02  0.42052312422E+02 -0.19046655984E+03  0.23757312929E+03  0.12509000000E+03 0.  0.
         25    1    3    3    0    0  0.63184282097E+02 -0.11955916508E+02 -0.16845105404E+03  0.21945036603E+03  0.12509000000E+03 0.  0.
         25    1    3    3    0    0 -0.10766954222E+02 -0.30096395914E+02 -0.11121576176E+03  0.17040590986E+03  0.12509000000E+03 0.  0.
<mgrwt>
<rscale>  2 0.41550243E+03</rscale>
<asrwt>0</asrwt>
<pdfrwt beam="1">  1       21 0.11565885E-01 0.41550243E+03</pdfrwt>
<pdfrwt beam="2">  1       21 0.80703144E-01 0.41550243E+03</pdfrwt>
<totfact> 0.78873412E+04</totfact>
</mgrwt>
</event>
<event>
 6    0  0.1539497E-004  0.4277485E+03  0.7546771E-02  0.1034574E+00
         21   -1    0    0  502  501  0.00000000000E+00  0.00000000000E+00  0.94311187927E+02  0.94311187927E+02  0.00000000000E+00 0.  1.
         21   -1    0    0  501  502 -0.00000000000E+00 -0.00000000000E+00 -0.48501344999E+03  0.48501344999E+03  0.00000000000E+00 0.  1.
      99925    2    1    2    0    0 -0.50797553252E+02  0.96168879235E+00 -0.34499424401E+03  0.43678324998E+03  0.26301570827E+03 0.  0.
         25    1    1    2    0    0  0.50797553252E+02 -0.96168879235E+00 -0.45708018052E+02  0.14254138794E+03  0.12509000000E+03 0.  0.
         25    1    3    3    0    0 -0.31687612334E+01  0.13133974888E+02 -0.21894368810E+03  0.25252007644E+03  0.12509000000E+03 0.  0.
         25    1    3    3    0    0 -0.47628792019E+02 -0.12172286096E+02 -0.12605055591E+03  0.18426317354E+03  0.12509000000E+03 0.  0.
<mgrwt>
<rscale>  2 0.42774850E+03</rscale>
<asrwt>0</asrwt>
<pdfrwt beam="1">  1       21 0.13869293E-01 0.42774850E+03</pdfrwt>
<pdfrwt beam="2">  1       21 0.71325506E-01 0.42774850E+03</pdfrwt>
<totfact> 0.74834065E+04</totfact>
</mgrwt>
</event>
<event>
 6    0  0.1539497E-004  0.4084700E+03  0.7546771E-02  0.1040886E+00
         21   -1    0    0  502  501  0.00000000000E+00  0.00000000000E+00  0.33074904118E+03  0.33074904118E+03  0.00000000000E+00 0.  1.
         21   -1    0    0  501  502 -0.00000000000E+00 -0.00000000000E+00 -0.12611357779E+03  0.12611357779E+03  0.00000000000E+00 0.  1.
      99925    2    1    2    0    0 -0.29230267007E+02 -0.47036319731E+02  0.16093512126E+03  0.31325185376E+03  0.26298248373E+03 0.  0.
         25    1    3    3    0    0  0.95792282920E+01 -0.33885265663E+02  0.11590908703E+03  0.17413327482E+03  0.12509000000E+03 0.  0.
         25    1    3    3    0    0 -0.38809495299E+02 -0.13151054068E+02  0.45026034227E+02  0.13911857894E+03  0.12509000000E+03 0.  0.
         25    1    1    2    0    0  0.29230267007E+02  0.47036319731E+02  0.43700342133E+02  0.14361076522E+03  0.12509000000E+03 0.  0.
<mgrwt>
<rscale>  2 0.40847005E+03</rscale>
<asrwt>0</asrwt>
<pdfrwt beam="1">  1       21 0.48639565E-01 0.40847005E+03</pdfrwt>
<pdfrwt beam="2">  1       21 0.18546115E-01 0.40847005E+03</pdfrwt>
<totfact> 0.10082385E+05</totfact>
</mgrwt>
</event>
<event>
 6    0  0.1539497E-004  0.4216184E+03  0.7546771E-02  0.1036541E+00
         21   -1    0    0  502  501  0.00000000000E+00  0.00000000000E+00  0.12422517600E+03  0.12422517600E+03  0.00000000000E+00 0. -1.
         21   -1    0    0  501  502 -0.00000000000E+00 -0.00000000000E+00 -0.35774159571E+03  0.35774159571E+03  0.00000000000E+00 0. -1.
      99925    2    1    2    0    0  0.58659664203E+02  0.38206039496E+02 -0.11287910793E+03  0.29461275720E+03  0.26297210126E+03 0.  0.
         25    1    3    3    0    0  0.54941558728E+02  0.44272108190E+02 -0.82739019389E+02  0.16574633591E+03  0.12509000000E+03 0.  0.
         25    1    3    3    0    0  0.37181054747E+01 -0.60660686938E+01 -0.30140088538E+02  0.12886642128E+03  0.12509000000E+03 0.  0.
         25    1    1    2    0    0 -0.58659664203E+02 -0.38206039496E+02 -0.12063731179E+03  0.18735401451E+03  0.12509000000E+03 0.  0.
<mgrwt>
<rscale>  2 0.42161837E+03</rscale>
<asrwt>0</asrwt>
<pdfrwt beam="1">  1       21 0.18268409E-01 0.42161837E+03</pdfrwt>
<pdfrwt beam="2">  1       21 0.52609057E-01 0.42161837E+03</pdfrwt>
<totfact> 0.87553322E+04</totfact>
</mgrwt>
</event>
<event>
 6    0  0.1539497E-004  0.4043435E+03  0.7546771E-02  0.1042286E+00
         21   -1    0    0  502  501  0.00000000000E+00  0.00000000000E+00  0.26892650952E+03  0.26892650952E+03  0.00000000000E+00 0.  1.
         21   -1    0    0  501  502 -0.00000000000E+00 -0.00000000000E+00 -0.15198731354E+03  0.15198731354E+03  0.00000000000E+00 0.  1.
      99925    2    1    2    0    0 -0.20889112249E+02 -0.33847108037E+02  0.40532584979E+02  0.26903406787E+03  0.26297235120E+03 0.  0.
         25    1    1    2    0    0  0.20889112249E+02  0.33847108037E+02  0.76406611001E+02  0.15187975519E+03  0.12509000000E+03 0.  0.
         25    1    3    3    0    0 -0.28718763463E+01  0.19047860292E+02  0.37475948003E+02  0.13199630084E+03  0.12509000000E+03 0.  0.
         25    1    3    3    0    0 -0.18017235902E+02 -0.52894968330E+02  0.30566369756E+01  0.13703776703E+03  0.12509000000E+03 0.  0.
<mgrwt>
<rscale>  2 0.40434351E+03</rscale>
<asrwt>0</asrwt>
<pdfrwt beam="1">  1       21 0.39548017E-01 0.40434351E+03</pdfrwt>
<pdfrwt beam="2">  1       21 0.22351075E-01 0.40434351E+03</pdfrwt>
<totfact> 0.10886551E+05</totfact>
</mgrwt>
</event>
<event>
 6    0  0.1539497E-004  0.4088135E+03  0.7546771E-02  0.1040770E+00
         21   -1    0    0  502  501  0.00000000000E+00  0.00000000000E+00  0.14684263098E+03  0.14684263098E+03  0.00000000000E+00 0.  1.
         21   -1    0    0  501  502 -0.00000000000E+00 -0.00000000000E+00 -0.28453664708E+03  0.28453664708E+03  0.00000000000E+00 0.  1.
      99925    2    1    2    0    0  0.43467443077E+02 -0.39405750209E+02 -0.76978032329E+02  0.28046151720E+03  0.26323148256E+03 0.  0.
         25    1    1    2    0    0 -0.43467443077E+02  0.39405750209E+02 -0.60715983769E+02  0.15091776086E+03  0.12509000000E+03 0.  0.
         25    1    3    3    0    0  0.25575139308E+02 -0.30081486835E+02 -0.80137068272E+02  0.15371545600E+03  0.12509000000E+03 0.  0.
         25    1    3    3    0    0  0.17892303769E+02 -0.93242633743E+01  0.31590359433E+01  0.12674606120E+03  0.12509000000E+03 0.  0.
<mgrwt>
<rscale>  2 0.40881345E+03</rscale>
<asrwt>0</asrwt>
<pdfrwt beam="1">  1       21 0.21594505E-01 0.40881345E+03</pdfrwt>
<pdfrwt beam="2">  1       21 0.41843624E-01 0.40881345E+03</pdfrwt>
<totfact> 0.10343313E+05</totfact>
</mgrwt>
</event>
<event>
 6    0  0.1539497E-004  0.4170370E+03  0.7546771E-02  0.1038035E+00
         21   -1    0    0  502  501  0.00000000000E+00  0.00000000000E+00  0.65035200106E+02  0.65035200106E+02  0.00000000000E+00 0. -1.
         21   -1    0    0  501  502 -0.00000000000E+00 -0.00000000000E+00 -0.66856040720E+03  0.66856040720E+03  0.00000000000E+00 0. -1.
      99925    2    1    2    0    0 -0.60676642351E+02 -0.28306487466E+02 -0.44136605011E+03  0.51812864359E+03  0.26300264059E+03 0.  0.
         25    1    3    3    0    0 -0.37642068975E+02  0.14401585775E+02 -0.27175250927E+03  0.30186299115E+03  0.12509000000E+03 0.  0.
         25    1    1    2    0    0  0.60676642351E+02  0.28306487466E+02 -0.16215915699E+03  0.21546696372E+03  0.12509000000E+03 0.  0.
         25    1    3    3    0    0 -0.23034573375E+02 -0.42708073241E+02 -0.16961354084E+03  0.21626565244E+03  0.12509000000E+03 0.  0.
<mgrwt>
<rscale>  2 0.41703698E+03</rscale>
<asrwt>0</asrwt>
<pdfrwt beam="1">  1       21 0.95640006E-02 0.41703698E+03</pdfrwt>
<pdfrwt beam="2">  1       21 0.98317701E-01 0.41703698E+03</pdfrwt>
<totfact> 0.69708713E+04</totfact>
</mgrwt>
</event>
<event>
 6    0  0.1539497E-004  0.4488507E+03  0.7546771E-02  0.1028065E+00
         21   -1    0    0  502  501  0.00000000000E+00  0.00000000000E+00  0.99808601831E+02  0.99808601831E+02  0.00000000000E+00 0. -1.
         21   -1    0    0  501  502 -0.00000000000E+00 -0.00000000000E+00 -0.50463331126E+03  0.50463331126E+03  0.00000000000E+00 0. -1.
      99925    2    1    2    0    0 -0.10120330457E+03  0.60687970684E+01 -0.20869935982E+03  0.35068691311E+03  0.26295807477E+03 0.  0.
         25    1    1    2    0    0  0.10120330457E+03 -0.60687970684E+01 -0.19612534962E+03  0.25375499998E+03  0.12509000000E+03 0.  0.
         25    1    3    3    0    0 -0.67774038819E+02 -0.30847475766E+02 -0.12707899391E+03  0.19323940047E+03  0.12509000000E+03 0.  0.
         25    1    3    3    0    0 -0.33429265748E+02  0.36916272835E+02 -0.81620365902E+02  0.15744751265E+03  0.12509000000E+03 0.  0.
<mgrwt>
<rscale>  2 0.44885073E+03</rscale>
<asrwt>0</asrwt>
<pdfrwt beam="1">  1       21 0.14677736E-01 0.44885073E+03</pdfrwt>
<pdfrwt beam="2">  1       21 0.74210779E-01 0.44885073E+03</pdfrwt>
<totfact> 0.61331241E+04</totfact>
</mgrwt>
</event>
<event>
 6    0  0.1539497E-004  0.3907723E+03  0.7546771E-02  0.1047023E+00
         21   -1    0    0  502  501  0.00000000000E+00  0.00000000000E+00  0.59706152783E+02  0.59706152783E+02  0.00000000000E+00 0.  1.
         21   -1    0    0  501  502 -0.00000000000E+00 -0.00000000000E+00 -0.63939380766E+03  0.63939380766E+03  0.00000000000E+00 0.  1.
      99925    2    1    2    0    0 -0.79479026838E+01  0.42960926891E+00 -0.42662437424E+03  0.50126358942E+03  0.26304652756E+03 0.  0.
         25    1    3    3    0    0 -0.38799603698E+02 -0.17218931829E+02 -0.19282803047E+03  0.23373501726E+03  0.12509000000E+03 0.  0.
         25    1    3    3    0    0  0.30851701015E+02  0.17648541098E+02 -0.23379634377E+03  0.26752857215E+03  0.12509000000E+03 0.  0.
         25    1    1    2    0    0  0.79479026838E+01 -0.42960926891E+00 -0.15306328063E+03  0.19783637102E+03  0.12509000000E+03 0.  0.
<mgrwt>
<rscale>  2 0.39077228E+03</rscale>
<asrwt>0</asrwt>
<pdfrwt beam="1">  1       21 0.87803172E-02 0.39077228E+03</pdfrwt>
<pdfrwt beam="2">  1       21 0.94028494E-01 0.39077228E+03</pdfrwt>
<totfact> 0.90909503E+04</totfact>
</mgrwt>
</event>
<event>
 6    0  0.1539497E-004  0.4348031E+03  0.7546771E-02  0.1032353E+00
         21   -1    0    0  502  501  0.00000000000E+00  0.00000000000E+00  0.16132872932E+03  0.16132872932E+03  0.00000000000E+00 0.  1.
         21   -1    0    0  501  502 -0.00000000000E+00 -0.00000000000E+00 -0.29296356862E+03  0.29296356862E+03  0.00000000000E+00 0.  1.
      99925    2    1    2    0    0  0.36546421883E+02  0.57449735300E+02 -0.18544904256E+02  0.27243258677E+03  0.26313397314E+03 0.  0.
         25    1    3    3    0    0 -0.12424475524E+02  0.14935003761E+02 -0.32919691899E+02  0.13079998526E+03  0.12509000000E+03 0.  0.
         25    1    1    2    0    0 -0.36546421883E+02 -0.57449735300E+02 -0.11308993504E+03  0.18185971117E+03  0.12509000000E+03 0.  0.
         25    1    3    3    0    0  0.48970897407E+02  0.42514731539E+02  0.14374787643E+02  0.14163260151E+03  0.12509000000E+03 0.  0.
<mgrwt>
<rscale>  2 0.43480313E+03</rscale>
<asrwt>0</asrwt>
<pdfrwt beam="1">  1       21 0.23724813E-01 0.43480313E+03</pdfrwt>
<pdfrwt beam="2">  1       21 0.43082877E-01 0.43480313E+03</pdfrwt>
<totfact> 0.80814828E+04</totfact>
</mgrwt>
</event>
<event>
 6    0  0.1539497E-004  0.4135939E+03  0.7546771E-02  0.1039172E+00
         21   -1    0    0  502  501  0.00000000000E+00  0.00000000000E+00  0.83636289728E+02  0.83636289728E+02  0.00000000000E+00 0. -1.
         21   -1    0    0  501  502 -0.00000000000E+00 -0.00000000000E+00 -0.51132086069E+03  0.51132086069E+03  0.00000000000E+00 0. -1.
      99925    2    1    2    0    0  0.26743428711E+02  0.13178908527E+02 -0.36771081996E+03  0.45306545398E+03  0.26299841038E+03 0.  0.
         25    1    1    2    0    0 -0.26743428711E+02 -0.13178908527E+02 -0.59973750996E+02  0.14189169644E+03  0.12509000000E+03 0.  0.
         25    1    3    3    0    0  0.42332148887E+02  0.23114874610E+02 -0.22909000112E+03  0.26543557593E+03  0.12509000000E+03 0.  0.
         25    1    3    3    0    0 -0.15588720176E+02 -0.99359660822E+01 -0.13862081885E+03  0.18762987805E+03  0.12509000000E+03 0.  0.
<mgrwt>
<rscale>  2 0.41359391E+03</rscale>
<asrwt>0</asrwt>
<pdfrwt beam="1">  1       21 0.12299455E-01 0.41359391E+03</pdfrwt>
<pdfrwt beam="2">  1       21 0.75194241E-01 0.41359391E+03</pdfrwt>
<totfact> 0.82979852E+04</totfact>
</mgrwt>
</event>
<event>
 6    0  0.1539497E-004  0.4491336E+03  0.7546771E-02  0.1027981E+00
         21   -1    0    0  502  501  0.00000000000E+00  0.00000000000E+00  0.63190519798E+03  0.63190519798E+03  0.00000000000E+00 0.  1.
         21   -1    0    0  501  502 -0.00000000000E+00 -0.00000000000E+00 -0.79806657120E+02  0.79806657120E+02  0.00000000000E+00 0.  1.
      99925    2    1    2    0    0 -0.78549416315E+01 -0.93047560050E+02  0.43390395867E+03  0.51591344883E+03  0.26301044236E+03 0.  0.
         25    1    3    3    0    0  0.58637822018E+01 -0.52010383546E+01  0.18339368167E+03  0.22213100935E+03  0.12509000000E+03 0.  0.
         25    1    1    2    0    0  0.78549416315E+01  0.93047560050E+02  0.11819458218E+03  0.19579840627E+03  0.12509000000E+03 0.  0.
         25    1    3    3    0    0 -0.13718723833E+02 -0.87846521695E+02  0.25051027701E+03  0.29378243947E+03  0.12509000000E+03 0.  0.
<mgrwt>
<rscale>  2 0.44913357E+03</rscale>
<asrwt>0</asrwt>
<pdfrwt beam="1">  1       21 0.92927232E-01 0.44913357E+03</pdfrwt>
<pdfrwt beam="2">  1       21 0.11736273E-01 0.44913357E+03</pdfrwt>
<totfact> 0.54755380E+04</totfact>
</mgrwt>
</event>
<event>
 6    0  0.1539497E-004  0.4085114E+03  0.7546771E-02  0.1040872E+00
         21   -1    0    0  502  501  0.00000000000E+00  0.00000000000E+00  0.94822836317E+03  0.94822836317E+03  0.00000000000E+00 0.  1.
         21   -1    0    0  501  502 -0.00000000000E+00 -0.00000000000E+00 -0.43998247471E+02  0.43998247471E+02  0.00000000000E+00 0.  1.
      99925    2    1    2    0    0  0.30407588242E+01 -0.43358862004E+02  0.69730479329E+03  0.74655440163E+03  0.26309743957E+03 0.  0.
         25    1    1    2    0    0 -0.30407588242E+01  0.43358862004E+02  0.20692532240E+03  0.24567220901E+03  0.12509000000E+03 0.  0.
         25    1    3    3    0    0 -0.35043131494E+02 -0.16912299641E+02  0.39397440845E+03  0.41518356128E+03  0.12509000000E+03 0.  0.
         25    1    3    3    0    0  0.38083890318E+02 -0.26446562363E+02  0.30333038484E+03  0.33137084034E+03  0.12509000000E+03 0.  0.
<mgrwt>
<rscale>  2 0.40851138E+03</rscale>
<asrwt>0</asrwt>
<pdfrwt beam="1">  1       21 0.13944533E+00 0.40851138E+03</pdfrwt>
<pdfrwt beam="2">  1       21 0.64703311E-02 0.40851138E+03</pdfrwt>
<totfact> 0.57763965E+04</totfact>
</mgrwt>
</event>
<event>
 6    0  0.1539497E-004  0.5911515E+03  0.7546771E-02  0.9923936E-01
         21   -1    0    0  502  501  0.00000000000E+00  0.00000000000E+00  0.55459433810E+03  0.55459433810E+03  0.00000000000E+00 0. -1.
         21   -1    0    0  501  502 -0.00000000000E+00 -0.00000000000E+00 -0.15752961532E+03  0.15752961532E+03  0.00000000000E+00 0. -1.
      99925    2    1    2    0    0 -0.20945351400E+03  0.54935878168E+02  0.24010365113E+03  0.41687319330E+03  0.26314401148E+03 0.  0.
         25    1    1    2    0    0  0.20945351400E+03 -0.54935878168E+02  0.15696107165E+03  0.29525076011E+03  0.12509000000E+03 0.  0.
         25    1    3    3    0    0 -0.13291066182E+03  0.57605330886E+02  0.10964138960E+03  0.22057280110E+03  0.12509000000E+03 0.  0.
         25    1    3    3    0    0 -0.76542852180E+02 -0.26694527176E+01  0.13046226153E+03  0.19630039221E+03  0.12509000000E+03 0.  0.
<mgrwt>
<rscale>  2 0.59115153E+03</rscale>
<asrwt>0</asrwt>
<pdfrwt beam="1">  1       21 0.81557990E-01 0.59115153E+03</pdfrwt>
<pdfrwt beam="2">  1       21 0.23166120E-01 0.59115153E+03</pdfrwt>
<totfact> 0.20180741E+04</totfact>
</mgrwt>
</event>
<event>
 6    0  0.1539497E-004  0.4016217E+03  0.7546771E-02  0.1043220E+00
         21   -1    0    0  502  501  0.00000000000E+00  0.00000000000E+00  0.56395050534E+03  0.56395050534E+03  0.00000000000E+00 0. -1.
         21   -1    0    0  501  502 -0.00000000000E+00 -0.00000000000E+00 -0.71504504116E+02  0.71504504116E+02  0.00000000000E+00 0. -1.
      99925    2    1    2    0    0  0.38521262695E+02  0.29479839199E+02  0.33145668023E+03  0.42588874744E+03  0.26299191192E+03 0.  0.
         25    1    1    2    0    0 -0.38521262695E+02 -0.29479839199E+02  0.16098932100E+03  0.20956626202E+03  0.12509000000E+03 0.  0.
         25    1    3    3    0    0 -0.18750423755E+02  0.13568135232E+02  0.13468924421E+03  0.18526838179E+03  0.12509000000E+03 0.  0.
         25    1    3    3    0    0  0.57271686450E+02  0.15911703967E+02  0.19676743602E+03  0.24062036566E+03  0.12509000000E+03 0.  0.
<mgrwt>
<rscale>  2 0.40162172E+03</rscale>
<asrwt>0</asrwt>
<pdfrwt beam="1">  1       21 0.82933895E-01 0.40162172E+03</pdfrwt>
<pdfrwt beam="2">  1       21 0.10515369E-01 0.40162172E+03</pdfrwt>
<totfact> 0.88227001E+04</totfact>
</mgrwt>
</event>
<event>
 6    0  0.1539497E-004  0.4154950E+03  0.7546771E-02  0.1038543E+00
         21   -1    0    0  502  501  0.00000000000E+00  0.00000000000E+00  0.75834088734E+03  0.75834088734E+03  0.00000000000E+00 0. -1.
         21   -1    0    0  501  502 -0.00000000000E+00 -0.00000000000E+00 -0.56912442430E+02  0.56912442430E+02  0.00000000000E+00 0. -1.
      99925    2    1    2    0    0 -0.63402602345E+02 -0.12521411859E+02  0.40681203588E+03  0.48872153605E+03  0.26301336758E+03 0.  0.
         25    1    3    3    0    0 -0.21908821765E+02 -0.18877588543E+02  0.13345775276E+03  0.18518865973E+03  0.12509000000E+03 0.  0.
         25    1    1    2    0    0  0.63402602345E+02  0.12521411859E+02  0.29461640903E+03  0.32653179372E+03  0.12509000000E+03 0.  0.
         25    1    3    3    0    0 -0.41493780580E+02  0.63561766847E+01  0.27335428312E+03  0.30353287632E+03  0.12509000000E+03 0.  0.
<mgrwt>
<rscale>  2 0.41549504E+03</rscale>
<asrwt>0</asrwt>
<pdfrwt beam="1">  1       21 0.11152071E+00 0.41549504E+03</pdfrwt>
<pdfrwt beam="2">  1       21 0.83694773E-02 0.41549504E+03</pdfrwt>
<totfact> 0.64944362E+04</totfact>
</mgrwt>
</event>
<event>
 6    0  0.1539497E-004  0.3995211E+03  0.7546771E-02  0.1043946E+00
         21   -1    0    0  502  501  0.00000000000E+00  0.00000000000E+00  0.25165046624E+03  0.25165046624E+03  0.00000000000E+00 0. -1.
         21   -1    0    0  501  502 -0.00000000000E+00 -0.00000000000E+00 -0.15857025998E+03  0.15857025998E+03  0.00000000000E+00 0. -1.
      99925    2    1    2    0    0 -0.11331533719E+02 -0.40122156181E+02  0.78026356369E+02  0.27750931914E+03  0.26303064241E+03 0.  0.
         25    1    1    2    0    0  0.11331533719E+02  0.40122156181E+02  0.15053849891E+02  0.13271140708E+03  0.12509000000E+03 0.  0.
         25    1    3    3    0    0 -0.41379804250E+02 -0.38949583827E+02  0.46505989981E+02  0.14505058940E+03  0.12509000000E+03 0.  0.
         25    1    3    3    0    0  0.30048270530E+02 -0.11725723534E+01  0.31520366389E+02  0.13245872974E+03  0.12509000000E+03 0.  0.
<mgrwt>
<rscale>  2 0.39952111E+03</rscale>
<asrwt>0</asrwt>
<pdfrwt beam="1">  1       21 0.37007422E-01 0.39952111E+03</pdfrwt>
<pdfrwt beam="2">  1       21 0.23319156E-01 0.39952111E+03</pdfrwt>
<totfact> 0.11501858E+05</totfact>
</mgrwt>
</event>
<event>
 6    0  0.1539497E-004  0.4646417E+03  0.7546771E-02  0.1023444E+00
         21   -1    0    0  502  501  0.00000000000E+00  0.00000000000E+00  0.18451171026E+03  0.18451171026E+03  0.00000000000E+00 0.  1.
         21   -1    0    0  501  502 -0.00000000000E+00 -0.00000000000E+00 -0.29251784655E+03  0.29251784655E+03  0.00000000000E+00 0.  1.
      99925    2    1    2    0    0  0.88058090571E+02 -0.35087813945E+02 -0.14613166741E+03  0.31551656593E+03  0.26307956431E+03 0.  0.
         25    1    3    3    0    0  0.27085437256E+02  0.17559595308E+02 -0.85114883669E+02  0.15470621132E+03  0.12509000000E+03 0.  0.
         25    1    3    3    0    0  0.60972653315E+02 -0.52647409253E+02 -0.61016783736E+02  0.16081035461E+03  0.12509000000E+03 0.  0.
         25    1    1    2    0    0 -0.88058090571E+02  0.35087813945E+02  0.38125531115E+02  0.16151299089E+03  0.12509000000E+03 0.  0.
<mgrwt>
<rscale>  2 0.46464166E+03</rscale>
<asrwt>0</asrwt>
<pdfrwt beam="1">  1       21 0.27134075E-01 0.46464166E+03</pdfrwt>
<pdfrwt beam="2">  1       21 0.43017330E-01 0.46464166E+03</pdfrwt>
<totfact> 0.62034141E+04</totfact>
</mgrwt>
</event>
<event>
 6    0  0.1539497E-004  0.5432610E+03  0.7546771E-02  0.1003066E+00
         21   -1    0    0  502  501  0.00000000000E+00  0.00000000000E+00  0.99364992678E+02  0.99364992678E+02  0.00000000000E+00 0. -1.
         21   -1    0    0  501  502 -0.00000000000E+00 -0.00000000000E+00 -0.74254657241E+03  0.74254657241E+03  0.00000000000E+00 0. -1.
      99925    2    1    2    0    0 -0.86698664396E+02 -0.12594672999E+03 -0.53810266372E+03  0.61815204262E+03  0.26301755436E+03 0.  0.
         25    1    1    2    0    0  0.86698664396E+02  0.12594672999E+03 -0.10507891602E+03  0.22375952247E+03  0.12509000000E+03 0.  0.
         25    1    3    3    0    0 -0.40002351366E+02 -0.60308217240E+02 -0.18330595920E+03  0.23342204686E+03  0.12509000000E+03 0.  0.
         25    1    3    3    0    0 -0.46696313030E+02 -0.65638512746E+02 -0.35479670452E+03  0.38472999576E+03  0.12509000000E+03 0.  0.
<mgrwt>
<rscale>  2 0.54326102E+03</rscale>
<asrwt>0</asrwt>
<pdfrwt beam="1">  1       21 0.14612498E-01 0.54326102E+03</pdfrwt>
<pdfrwt beam="2">  1       21 0.10919803E+00 0.54326102E+03</pdfrwt>
<totfact> 0.24179135E+04</totfact>
</mgrwt>
</event>
<event>
 6    0  0.1539497E-004  0.4106589E+03  0.7546771E-02  0.1040150E+00
         21   -1    0    0  502  501  0.00000000000E+00  0.00000000000E+00  0.30919931830E+03  0.30919931830E+03  0.00000000000E+00 0. -1.
         21   -1    0    0  501  502 -0.00000000000E+00 -0.00000000000E+00 -0.13635275143E+03  0.13635275143E+03  0.00000000000E+00 0. -1.
      99925    2    1    2    0    0  0.26910411535E+02  0.54373427436E+02  0.13290789291E+03  0.30090337240E+03  0.26305454123E+03 0.  0.
         25    1    3    3    0    0 -0.64764741768E+01  0.27660321243E+02  0.10505643983E+03  0.16580531276E+03  0.12509000000E+03 0.  0.
         25    1    3    3    0    0  0.33386885712E+02  0.26713106193E+02  0.27851453079E+02  0.13509805964E+03  0.12509000000E+03 0.  0.
         25    1    1    2    0    0 -0.26910411535E+02 -0.54373427436E+02  0.39938673960E+02  0.14464869732E+03  0.12509000000E+03 0.  0.
<mgrwt>
<rscale>  2 0.41065887E+03</rscale>
<asrwt>0</asrwt>
<pdfrwt beam="1">  1       21 0.45470488E-01 0.41065887E+03</pdfrwt>
<pdfrwt beam="2">  1       21 0.20051875E-01 0.41065887E+03</pdfrwt>
<totfact> 0.10017128E+05</totfact>
</mgrwt>
</event>
<event>
 6    0  0.1539497E-004  0.4287380E+03  0.7546771E-02  0.1034259E+00
         21   -1    0    0  502  501  0.00000000000E+00  0.00000000000E+00  0.37177132821E+03  0.37177132821E+03  0.00000000000E+00 0.  1.
         21   -1    0    0  501  502 -0.00000000000E+00 -0.00000000000E+00 -0.12360845260E+03  0.12360845260E+03  0.00000000000E+00 0.  1.
      99925    2    1    2    0    0  0.61242835566E+02 -0.59904022238E+02  0.17068351468E+03  0.32511605520E+03  0.26311292325E+03 0.  0.
         25    1    1    2    0    0 -0.61242835566E+02  0.59904022238E+02  0.77479360926E+02  0.17026372561E+03  0.12509000000E+03 0.  0.
         25    1    3    3    0    0  0.29245267125E+02 -0.67069817121E+02  0.68454034717E+02  0.16027198441E+03  0.12509000000E+03 0.  0.
         25    1    3    3    0    0  0.31997568441E+02  0.71657948828E+01  0.10222947996E+03  0.16484407079E+03  0.12509000000E+03 0.  0.
<mgrwt>
<rscale>  2 0.42873805E+03</rscale>
<asrwt>0</asrwt>
<pdfrwt beam="1">  1       21 0.54672254E-01 0.42873805E+03</pdfrwt>
<pdfrwt beam="2">  1       21 0.18177714E-01 0.42873805E+03</pdfrwt>
<totfact> 0.81252431E+04</totfact>
</mgrwt>
</event>
<event>
 6    0  0.1539497E-004  0.4168544E+03  0.7546771E-02  0.1038095E+00
         21   -1    0    0  502  501  0.00000000000E+00  0.00000000000E+00  0.42474988678E+02  0.42474988678E+02  0.00000000000E+00 0.  1.
         21   -1    0    0  501  502 -0.00000000000E+00 -0.00000000000E+00 -0.10227640686E+04  0.10227640686E+04  0.00000000000E+00 0.  1.
      99925    2    1    2    0    0 -0.26384033954E+02  0.10463735949E+02 -0.80964490757E+03  0.85176177821E+03  0.26299742100E+03 0.  0.
         25    1    1    2    0    0  0.26384033954E+02 -0.10463735949E+02 -0.17064417233E+03  0.21347727904E+03  0.12509000000E+03 0.  0.
         25    1    3    3    0    0 -0.35206275780E+02  0.69084228360E+01 -0.52151267454E+03  0.53750366136E+03  0.12509000000E+03 0.  0.
         25    1    3    3    0    0  0.88222418260E+01  0.35553131133E+01 -0.28813223302E+03  0.31425811686E+03  0.12509000000E+03 0.  0.
<mgrwt>
<rscale>  2 0.41685437E+03</rscale>
<asrwt>0</asrwt>
<pdfrwt beam="1">  1       21 0.62463210E-02 0.41685437E+03</pdfrwt>
<pdfrwt beam="2">  1       21 0.15040650E+00 0.41685437E+03</pdfrwt>
<totfact> 0.50041024E+04</totfact>
</mgrwt>
</event>
<event>
 6    0  0.1539497E-004  0.4370783E+03  0.7546771E-02  0.1031647E+00
         21   -1    0    0  502  501  0.00000000000E+00  0.00000000000E+00  0.53554114006E+02  0.53554114006E+02  0.00000000000E+00 0.  1.
         21   -1    0    0  501  502 -0.00000000000E+00 -0.00000000000E+00 -0.89179619091E+03  0.89179619091E+03  0.00000000000E+00 0.  1.
      99925    2    1    2    0    0  0.44590898829E+02  0.82628159347E+02 -0.57085575923E+03  0.63557827268E+03  0.26318754128E+03 0.  0.
         25    1    1    2    0    0 -0.44590898829E+02 -0.82628159347E+02 -0.26738631767E+03  0.30977203223E+03  0.12509000000E+03 0.  0.
         25    1    3    3    0    0 -0.64464512299E+01  0.69736040637E+02 -0.27713060804E+03  0.31201531070E+03  0.12509000000E+03 0.  0.
         25    1    3    3    0    0  0.51037350058E+02  0.12892118710E+02 -0.29372515119E+03  0.32356296199E+03  0.12509000000E+03 0.  0.
<mgrwt>
<rscale>  2 0.43707828E+03</rscale>
<asrwt>0</asrwt>
<pdfrwt beam="1">  1       21 0.78756058E-02 0.43707828E+03</pdfrwt>
<pdfrwt beam="2">  1       21 0.13114649E+00 0.43707828E+03</pdfrwt>
<totfact> 0.47667747E+04</totfact>
</mgrwt>
</event>
<event>
 6    0  0.1539497E-004  0.8912150E+03  0.7546771E-02  0.9436630E-01
         21   -1    0    0  502  501  0.00000000000E+00  0.00000000000E+00  0.27795377519E+03  0.27795377519E+03  0.00000000000E+00 0.  1.
         21   -1    0    0  501  502 -0.00000000000E+00 -0.00000000000E+00 -0.71438517604E+03  0.71438517604E+03  0.00000000000E+00 0.  1.
      99925    2    1    2    0    0 -0.10004456660E+03 -0.18774771966E+03 -0.60523646168E+03  0.69333932213E+03  0.26296410311E+03 0.  0.
         25    1    3    3    0    0 -0.34526017498E+02 -0.57151008026E+02 -0.31118650832E+03  0.34196905513E+03  0.12509000000E+03 0.  0.
         25    1    1    2    0    0  0.10004456660E+03  0.18774771966E+03  0.16880506083E+03  0.29899962910E+03  0.12509000000E+03 0.  0.
         25    1    3    3    0    0 -0.65518549097E+02 -0.13059671163E+03 -0.29404995336E+03  0.35137026701E+03  0.12509000000E+03 0.  0.
<mgrwt>
<rscale>  2 0.89121503E+03</rscale>
<asrwt>0</asrwt>
<pdfrwt beam="1">  1       21 0.40875555E-01 0.89121503E+03</pdfrwt>
<pdfrwt beam="2">  1       21 0.10505664E+00 0.89121503E+03</pdfrwt>
<totfact> 0.33026299E+03</totfact>
</mgrwt>
</event>
<event>
 6    0  0.1539497E-004  0.4368849E+03  0.7546771E-02  0.1031707E+00
         21   -1    0    0  502  501  0.00000000000E+00  0.00000000000E+00  0.14056764749E+03  0.14056764749E+03  0.00000000000E+00 0. -1.
         21   -1    0    0  501  502 -0.00000000000E+00 -0.00000000000E+00 -0.33946013282E+03  0.33946013282E+03  0.00000000000E+00 0. -1.
      99925    2    1    2    0    0 -0.75782732775E+02  0.51512970400E+02 -0.15562938645E+03  0.31904389127E+03  0.26300549409E+03 0.  0.
         25    1    3    3    0    0 -0.19286627118E+02 -0.12122521469E+02 -0.67420609499E+02  0.14391655984E+03  0.12509000000E+03 0.  0.
         25    1    3    3    0    0 -0.56496105657E+02  0.63635491868E+02 -0.88208776955E+02  0.17512733142E+03  0.12509000000E+03 0.  0.
         25    1    1    2    0    0  0.75782732775E+02 -0.51512970400E+02 -0.43263098879E+02  0.16098388904E+03  0.12509000000E+03 0.  0.
<mgrwt>
<rscale>  2 0.43688494E+03</rscale>
<asrwt>0</asrwt>
<pdfrwt beam="1">  1       21 0.20671713E-01 0.43688494E+03</pdfrwt>
<pdfrwt beam="2">  1       21 0.49920606E-01 0.43688494E+03</pdfrwt>
<totfact> 0.77219462E+04</totfact>
</mgrwt>
</event>
<event>
 6    0  0.2074127E-004  0.3945914E+03  0.7546771E-02  0.1045669E+00
         21   -1    0    0  502  501  0.00000000000E+00  0.00000000000E+00  0.18764944394E+03  0.18764944394E+03  0.00000000000E+00 0.  1.
         21   -1    0    0  501  502 -0.00000000000E+00 -0.00000000000E+00 -0.20743783270E+03  0.20743783270E+03  0.00000000000E+00 0.  1.
      99925    2    1    2    0    0  0.75040102211E+01  0.25150856500E+02 -0.33881289135E+02  0.26649881023E+03  0.26303003317E+03 0.  0.
         25    1    3    3    0    0 -0.31776544082E+02 -0.70673700637E+01 -0.13571833345E+02  0.12996691592E+03  0.12509000000E+03 0.  0.
         25    1    1    2    0    0 -0.75040102211E+01 -0.25150856500E+02  0.14092900381E+02  0.12858846641E+03  0.12509000000E+03 0.  0.
         25    1    3    3    0    0  0.39280554303E+02  0.32218226564E+02 -0.20309455790E+02  0.13653189431E+03  0.12509000000E+03 0.  0.
<mgrwt>
<rscale>  2 0.39459140E+03</rscale>
<asrwt>0</asrwt>
<pdfrwt beam="1">  1       21 0.27595507E-01 0.39459140E+03</pdfrwt>
<pdfrwt beam="2">  1       21 0.30505563E-01 0.39459140E+03</pdfrwt>
<totfact> 0.12234159E+05</totfact>
</mgrwt>
</event>
<event>
 6    0  0.1539497E-004  0.4108825E+03  0.7546771E-02  0.1040075E+00
         21   -1    0    0  502  501  0.00000000000E+00  0.00000000000E+00  0.77475325789E+03  0.77475325789E+03  0.00000000000E+00 0.  1.
         21   -1    0    0  501  502 -0.00000000000E+00 -0.00000000000E+00 -0.54476837833E+02  0.54476837833E+02  0.00000000000E+00 0.  1.
      99925    2    1    2    0    0 -0.42459765091E+02 -0.22741090249E+02  0.39050402785E+03  0.47325632197E+03  0.26297939402E+03 0.  0.
         25    1    3    3    0    0 -0.49852953438E+02  0.18104387245E+01  0.24575555275E+03  0.28023542685E+03  0.12509000000E+03 0.  0.
         25    1    1    2    0    0  0.42459765091E+02  0.22741090249E+02  0.32977239221E+03  0.35597377375E+03  0.12509000000E+03 0.  0.
         25    1    3    3    0    0  0.73931883465E+01 -0.24551528973E+02  0.14474847510E+03  0.19302089512E+03  0.12509000000E+03 0.  0.
<mgrwt>
<rscale>  2 0.41088250E+03</rscale>
<asrwt>0</asrwt>
<pdfrwt beam="1">  1       21 0.11393430E+00 0.41088250E+03</pdfrwt>
<pdfrwt beam="2">  1       21 0.80113001E-02 0.41088250E+03</pdfrwt>
<totfact> 0.66613140E+04</totfact>
</mgrwt>
</event>
<event>
 6    0  0.1539497E-004  0.5132217E+03  0.7546771E-02  0.1010384E+00
         21   -1    0    0  502  501  0.00000000000E+00  0.00000000000E+00  0.25524809225E+03  0.25524809225E+03  0.00000000000E+00 0.  1.
         21   -1    0    0  501  502 -0.00000000000E+00 -0.00000000000E+00 -0.25798089014E+03  0.25798089014E+03  0.00000000000E+00 0.  1.
      99925    2    1    2    0    0 -0.10923008506E+03  0.11783366816E+03 -0.19373464237E+02  0.30892429641E+03  0.26314046621E+03 0.  0.
         25    1    3    3    0    0 -0.71902474745E+02  0.23483766159E+02  0.36060874952E+01  0.14622573342E+03  0.12509000000E+03 0.  0.
         25    1    3    3    0    0 -0.37327610319E+02  0.94349902005E+02 -0.22979551732E+02  0.16269856299E+03  0.12509000000E+03 0.  0.
         25    1    1    2    0    0  0.10923008506E+03 -0.11783366816E+03  0.16640666342E+02  0.20430468598E+03  0.12509000000E+03 0.  0.
<mgrwt>
<rscale>  2 0.51322171E+03</rscale>
<asrwt>0</asrwt>
<pdfrwt beam="1">  1       21 0.37536484E-01 0.51322171E+03</pdfrwt>
<pdfrwt beam="2">  1       21 0.37938366E-01 0.51322171E+03</pdfrwt>
<totfact> 0.41552005E+04</totfact>
</mgrwt>
</event>
<event>
 6    0  0.1539497E-004  0.4370073E+03  0.7546771E-02  0.1031669E+00
         21   -1    0    0  502  501  0.00000000000E+00  0.00000000000E+00  0.39952596501E+03  0.39952596501E+03  0.00000000000E+00 0. -1.
         21   -1    0    0  501  502 -0.00000000000E+00 -0.00000000000E+00 -0.11950123662E+03  0.11950123662E+03  0.00000000000E+00 0. -1.
      99925    2    1    2    0    0  0.31637739590E+02 -0.89719241346E+02  0.17145122054E+03  0.32801358028E+03  0.26295797951E+03 0.  0.
         25    1    3    3    0    0  0.18104753281E+02 -0.59451133933E+01  0.58985436262E+02  0.13960629017E+03  0.12509000000E+03 0.  0.
         25    1    3    3    0    0  0.13532986309E+02 -0.83774127952E+02  0.11246578428E+03  0.18840729011E+03  0.12509000000E+03 0.  0.
         25    1    1    2    0    0 -0.31637739590E+02  0.89719241346E+02  0.10857350786E+03  0.19101362135E+03  0.12509000000E+03 0.  0.
<mgrwt>
<rscale>  2 0.43700731E+03</rscale>
<asrwt>0</asrwt>
<pdfrwt beam="1">  1       21 0.58753818E-01 0.43700731E+03</pdfrwt>
<pdfrwt beam="2">  1       21 0.17573711E-01 0.43700731E+03</pdfrwt>
<totfact> 0.73945820E+04</totfact>
</mgrwt>
</event>
<event>
 6    0  0.1539497E-004  0.4594983E+03  0.7546771E-02  0.1024927E+00
         21   -1    0    0  502  501  0.00000000000E+00  0.00000000000E+00  0.18923636210E+03  0.18923636210E+03  0.00000000000E+00 0. -1.
         21   -1    0    0  501  502 -0.00000000000E+00 -0.00000000000E+00 -0.27893509403E+03  0.27893509403E+03  0.00000000000E+00 0. -1.
      99925    2    1    2    0    0  0.91195096517E+02 -0.70856211352E+02 -0.71803846790E+02  0.29698476468E+03  0.26402085092E+03 0.  0.
         25    1    1    2    0    0 -0.91195096517E+02  0.70856211352E+02 -0.17894885139E+02  0.17118669145E+03  0.12509000000E+03 0.  0.
         25    1    3    3    0    0  0.58627556404E+02  0.50753717460E+01 -0.32667329628E+02  0.14204792252E+03  0.12509000000E+03 0.  0.
         25    1    3    3    0    0  0.32567540112E+02 -0.75931583098E+02 -0.39136517163E+02  0.15493684215E+03  0.12509000000E+03 0.  0.
<mgrwt>
<rscale>  2 0.45949826E+03</rscale>
<asrwt>0</asrwt>
<pdfrwt beam="1">  1       21 0.27828877E-01 0.45949826E+03</pdfrwt>
<pdfrwt beam="2">  1       21 0.41019867E-01 0.45949826E+03</pdfrwt>
<totfact> 0.65212216E+04</totfact>
</mgrwt>
</event>
<event>
 6    0  0.1539497E-004  0.5591924E+03  0.7546771E-02  0.9993884E-01
         21   -1    0    0  502  501  0.00000000000E+00  0.00000000000E+00  0.58862551508E+02  0.58862551508E+02  0.00000000000E+00 0.  1.
         21   -1    0    0  501  502 -0.00000000000E+00 -0.00000000000E+00 -0.13280773598E+04  0.13280773598E+04  0.00000000000E+00 0.  1.
      99925    2    1    2    0    0 -0.13515795679E+03  0.62093254882E+02 -0.10562813009E+04  0.10986493768E+04  0.26301524880E+03 0.  0.
         25    1    3    3    0    0 -0.10412692962E+03  0.53269253003E+02 -0.65926875144E+03  0.68114816708E+03  0.12509000000E+03 0.  0.
         25    1    3    3    0    0 -0.31031027163E+02  0.88240018788E+01 -0.39701254941E+03  0.41750120976E+03  0.12509000000E+03 0.  0.
         25    1    1    2    0    0  0.13515795679E+03 -0.62093254882E+02 -0.21293350749E+03  0.28829053452E+03  0.12509000000E+03 0.  0.
<mgrwt>
<rscale>  2 0.55919235E+03</rscale>
<asrwt>0</asrwt>
<pdfrwt beam="1">  1       21 0.86562577E-02 0.55919235E+03</pdfrwt>
<pdfrwt beam="2">  1       21 0.19530549E+00 0.55919235E+03</pdfrwt>
<totfact> 0.12770640E+04</totfact>
</mgrwt>
</event>
<event>
 6    0  0.1539497E-004  0.4525074E+03  0.7546771E-02  0.1026977E+00
         21   -1    0    0  502  501  0.00000000000E+00  0.00000000000E+00  0.30590494812E+03  0.30590494812E+03  0.00000000000E+00 0. -1.
         21   -1    0    0  501  502 -0.00000000000E+00 -0.00000000000E+00 -0.16734197056E+03  0.16734197056E+03  0.00000000000E+00 0. -1.
      99925    2    1    2    0    0 -0.93850039127E+01 -0.14422174228E+02  0.20186745155E+03  0.33199876139E+03  0.26301450941E+03 0.  0.
         25    1    3    3    0    0 -0.40619796567E+02 -0.44716816306E+01  0.78245655843E+02  0.15310079872E+03  0.12509000000E+03 0.  0.
         25    1    1    2    0    0  0.93850039127E+01  0.14422174228E+02 -0.63304474002E+02  0.14124815729E+03  0.12509000000E+03 0.  0.
         25    1    3    3    0    0  0.31234792654E+02 -0.99504925974E+01  0.12362179571E+03  0.17889796268E+03  0.12509000000E+03 0.  0.
<mgrwt>
<rscale>  2 0.45250740E+03</rscale>
<asrwt>0</asrwt>
<pdfrwt beam="1">  1       21 0.44986022E-01 0.45250740E+03</pdfrwt>
<pdfrwt beam="2">  1       21 0.24609113E-01 0.45250740E+03</pdfrwt>
<totfact> 0.68540841E+04</totfact>
</mgrwt>
</event>
<event>
 6    0  0.1539497E-004  0.4269236E+03  0.7546771E-02  0.1034836E+00
         21   -1    0    0  502  501  0.00000000000E+00  0.00000000000E+00  0.38642774997E+03  0.38642774997E+03  0.00000000000E+00 0. -1.
         21   -1    0    0  501  502 -0.00000000000E+00 -0.00000000000E+00 -0.11791580094E+03  0.11791580094E+03  0.00000000000E+00 0. -1.
      99925    2    1    2    0    0  0.97501714410E+00 -0.48490063424E+02  0.92354466252E+02  0.28291364383E+03  0.26298012381E+03 0.  0.
         25    1    3    3    0    0 -0.12348110648E+02  0.11970220961E+02  0.59208734890E+02  0.13945947230E+03  0.12509000000E+03 0.  0.
         25    1    3    3    0    0  0.13323127792E+02 -0.60460284384E+02  0.33145731361E+02  0.14345417153E+03  0.12509000000E+03 0.  0.
         25    1    1    2    0    0 -0.97501714410E+00  0.48490063424E+02  0.17615748278E+03  0.22142990708E+03  0.12509000000E+03 0.  0.
<mgrwt>
<rscale>  2 0.42692359E+03</rscale>
<asrwt>0</asrwt>
<pdfrwt beam="1">  1       21 0.56827610E-01 0.42692359E+03</pdfrwt>
<pdfrwt beam="2">  1       21 0.17340559E-01 0.42692359E+03</pdfrwt>
<totfact> 0.81695618E+04</totfact>
</mgrwt>
</event>
<event>
 6    0  0.1539497E-004  0.4109438E+03  0.7546771E-02  0.1040055E+00
         21   -1    0    0  502  501  0.00000000000E+00  0.00000000000E+00  0.50135283809E+02  0.50135283809E+02  0.00000000000E+00 0. -1.
         21   -1    0    0  501  502 -0.00000000000E+00 -0.00000000000E+00 -0.84209579415E+03  0.84209579415E+03  0.00000000000E+00 0. -1.
      99925    2    1    2    0    0  0.25048902115E+02 -0.27031137793E+02 -0.40909729189E+03  0.48776861734E+03  0.26305797825E+03 0.  0.
         25    1    3    3    0    0 -0.84727947682E+01  0.20715411791E+02 -0.21145071174E+03  0.24669784785E+03  0.12509000000E+03 0.  0.
         25    1    3    3    0    0  0.33521696884E+02 -0.47746549584E+02 -0.19764658015E+03  0.24107076949E+03  0.12509000000E+03 0.  0.
         25    1    1    2    0    0 -0.25048902115E+02  0.27031137793E+02 -0.38286321845E+03  0.40446246062E+03  0.12509000000E+03 0.  0.
<mgrwt>
<rscale>  2 0.41094385E+03</rscale>
<asrwt>0</asrwt>
<pdfrwt beam="1">  1       21 0.73728357E-02 0.41094385E+03</pdfrwt>
<pdfrwt beam="2">  1       21 0.12383762E+00 0.41094385E+03</pdfrwt>
<totfact> 0.62492054E+04</totfact>
</mgrwt>
</event>
<event>
 6    0  0.1539497E-004  0.4811829E+03  0.7546771E-02  0.1018811E+00
         21   -1    0    0  502  501  0.00000000000E+00  0.00000000000E+00  0.45962357198E+03  0.45962357198E+03  0.00000000000E+00 0.  1.
         21   -1    0    0  501  502 -0.00000000000E+00 -0.00000000000E+00 -0.12593835175E+03  0.12593835175E+03  0.00000000000E+00 0.  1.
      99925    2    1    2    0    0  0.98744331829E+02  0.52995637516E+02  0.29975139893E+03  0.41422018044E+03  0.26299900391E+03 0.  0.
         25    1    3    3    0    0  0.37101749028E+02 -0.83674987541E+01  0.16737811214E+03  0.21238996054E+03  0.12509000000E+03 0.  0.
         25    1    1    2    0    0 -0.98744331829E+02 -0.52995637516E+02  0.33933821301E+02  0.17134174329E+03  0.12509000000E+03 0.  0.
         25    1    3    3    0    0  0.61642582801E+02  0.61363136270E+02  0.13237328679E+03  0.20183021990E+03  0.12509000000E+03 0.  0.
<mgrwt>
<rscale>  2 0.48118286E+03</rscale>
<asrwt>0</asrwt>
<pdfrwt beam="1">  1       21 0.67591701E-01 0.48118286E+03</pdfrwt>
<pdfrwt beam="2">  1       21 0.18520346E-01 0.48118286E+03</pdfrwt>
<totfact> 0.48687969E+04</totfact>
</mgrwt>
</event>
<event>
 6    0  0.1539497E-004  0.4326123E+03  0.7546771E-02  0.1033038E+00
         21   -1    0    0  502  501  0.00000000000E+00  0.00000000000E+00  0.94258342607E+03  0.94258342607E+03  0.00000000000E+00 0.  1.
         21   -1    0    0  501  502 -0.00000000000E+00 -0.00000000000E+00 -0.49638427101E+02  0.49638427101E+02  0.00000000000E+00 0.  1.
      99925    2    1    2    0    0 -0.12874031914E+02 -0.48534235947E+01  0.77961808792E+03  0.82287075844E+03  0.26291182109E+03 0.  0.
         25    1    1    2    0    0  0.12874031914E+02  0.48534235947E+01  0.11332691106E+03  0.16935109473E+03  0.12509000000E+03 0.  0.
         25    1    3    3    0    0 -0.13614096199E+02  0.13166602260E+02  0.27564730694E+03  0.30329465698E+03  0.12509000000E+03 0.  0.
         25    1    3    3    0    0  0.74006428479E+00 -0.18020025855E+02  0.50397078098E+03  0.51957610146E+03  0.12509000000E+03 0.  0.
<mgrwt>
<rscale>  2 0.43261234E+03</rscale>
<asrwt>0</asrwt>
<pdfrwt beam="1">  1       21 0.13861520E+00 0.43261234E+03</pdfrwt>
<pdfrwt beam="2">  1       21 0.72997693E-02 0.43261234E+03</pdfrwt>
<totfact> 0.47199393E+04</totfact>
</mgrwt>
</event>
<event>
 6    0  0.1539497E-004  0.4318842E+03  0.7546771E-02  0.1033266E+00
         21   -1    0    0  502  501  0.00000000000E+00  0.00000000000E+00  0.91802673801E+03  0.91802673801E+03  0.00000000000E+00 0. -1.
         21   -1    0    0  501  502 -0.00000000000E+00 -0.00000000000E+00 -0.50794801971E+02  0.50794801971E+02  0.00000000000E+00 0. -1.
      99925    2    1    2    0    0 -0.51733615179E+02 -0.71649706946E+02  0.59278515739E+03  0.65453092629E+03  0.26307117516E+03 0.  0.
         25    1    3    3    0    0  0.14327200752E+02 -0.25252992650E+02  0.28774722248E+03  0.31510149867E+03  0.12509000000E+03 0.  0.
         25    1    3    3    0    0 -0.66060815932E+02 -0.46396714296E+02  0.30503793491E+03  0.33942942762E+03  0.12509000000E+03 0.  0.
         25    1    1    2    0    0  0.51733615179E+02  0.71649706946E+02  0.27444677865E+03  0.31429061369E+03  0.12509000000E+03 0.  0.
<mgrwt>
<rscale>  2 0.43188418E+03</rscale>
<asrwt>0</asrwt>
<pdfrwt beam="1">  1       21 0.13500392E+00 0.43188418E+03</pdfrwt>
<pdfrwt beam="2">  1       21 0.74698244E-02 0.43188418E+03</pdfrwt>
<totfact> 0.48592992E+04</totfact>
</mgrwt>
</event>
<event>
 6    0  0.1539497E-004  0.4534176E+03  0.7546771E-02  0.1026708E+00
         21   -1    0    0  502  501  0.00000000000E+00  0.00000000000E+00  0.13598529012E+04  0.13598529012E+04  0.00000000000E+00 0. -1.
         21   -1    0    0  501  502 -0.00000000000E+00 -0.00000000000E+00 -0.37795905802E+02  0.37795905802E+02  0.00000000000E+00 0. -1.
      99925    2    1    2    0    0  0.60151193320E+02 -0.51806889992E+02  0.58948678243E+03  0.65024747911E+03  0.26272608839E+03 0.  0.
         25    1    1    2    0    0 -0.60151193320E+02  0.51806889992E+02  0.73257021297E+03  0.74740132790E+03  0.12509000000E+03 0.  0.
         25    1    3    3    0    0  0.59866320441E+02 -0.92644251160E+01  0.35260635985E+03  0.37900997217E+03  0.12509000000E+03 0.  0.
         25    1    3    3    0    0  0.28487287870E+00 -0.42542464876E+02  0.23688042258E+03  0.27123750694E+03  0.12509000000E+03 0.  0.
<mgrwt>
<rscale>  2 0.45341757E+03</rscale>
<asrwt>0</asrwt>
<pdfrwt beam="1">  1       21 0.19997834E+00 0.45341757E+03</pdfrwt>
<pdfrwt beam="2">  1       21 0.55582223E-02 0.45341757E+03</pdfrwt>
<totfact> 0.26721832E+04</totfact>
</mgrwt>
</event>
<event>
 6    0  0.1539497E-004  0.4276234E+03  0.7546771E-02  0.1034613E+00
         21   -1    0    0  502  501  0.00000000000E+00  0.00000000000E+00  0.62809638798E+03  0.62809638798E+03  0.00000000000E+00 0. -1.
         21   -1    0    0  501  502 -0.00000000000E+00 -0.00000000000E+00 -0.72784104778E+02  0.72784104778E+02  0.00000000000E+00 0. -1.
      99925    2    1    2    0    0  0.69848790774E+02 -0.38145865226E+02  0.31011453301E+03  0.41434357471E+03  0.26301257329E+03 0.  0.
         25    1    1    2    0    0 -0.69848790774E+02  0.38145865226E+02  0.24519775018E+03  0.28653691804E+03  0.12509000000E+03 0.  0.
         25    1    3    3    0    0  0.38887169626E+02 -0.50248716890E+02  0.12154976745E+03  0.18563135397E+03  0.12509000000E+03 0.  0.
         25    1    3    3    0    0  0.30961621147E+02  0.12102851664E+02  0.18856476556E+03  0.22871222074E+03  0.12509000000E+03 0.  0.
<mgrwt>
<rscale>  2 0.42762335E+03</rscale>
<asrwt>0</asrwt>
<pdfrwt beam="1">  1       21 0.92367113E-01 0.42762335E+03</pdfrwt>
<pdfrwt beam="2">  1       21 0.10703545E-01 0.42762335E+03</pdfrwt>
<totfact> 0.65957324E+04</totfact>
</mgrwt>
</event>
<event>
 6    0  0.1539497E-004  0.4196236E+03  0.7546771E-02  0.1037189E+00
         21   -1    0    0  502  501  0.00000000000E+00  0.00000000000E+00  0.43426163650E+03  0.43426163650E+03  0.00000000000E+00 0. -1.
         21   -1    0    0  501  502 -0.00000000000E+00 -0.00000000000E+00 -0.10136972909E+03  0.10136972909E+03  0.00000000000E+00 0. -1.
      99925    2    1    2    0    0 -0.11798687510E+01  0.72992883811E+02  0.24067299194E+03  0.36393049301E+03  0.26304478994E+03 0.  0.
         25    1    3    3    0    0 -0.20275424684E+02  0.65848699213E+02  0.98598674551E+02  0.17354063143E+03  0.12509000000E+03 0.  0.
         25    1    1    2    0    0  0.11798687510E+01 -0.72992883811E+02  0.92218915467E+02  0.17170087259E+03  0.12509000000E+03 0.  0.
         25    1    3    3    0    0  0.19095555933E+02  0.71441845976E+01  0.14207431738E+03  0.19038986157E+03  0.12509000000E+03 0.  0.
<mgrwt>
<rscale>  2 0.41962357E+03</rscale>
<asrwt>0</asrwt>
<pdfrwt beam="1">  1       21 0.63862005E-01 0.41962357E+03</pdfrwt>
<pdfrwt beam="2">  1       21 0.14907313E-01 0.41962357E+03</pdfrwt>
<totfact> 0.83985342E+04</totfact>
</mgrwt>
</event>
<event>
 6    0  0.1539497E-004  0.4391992E+03  0.7546771E-02  0.1030993E+00
         21   -1    0    0  502  501  0.00000000000E+00  0.00000000000E+00  0.97000331137E+02  0.97000331137E+02  0.00000000000E+00 0. -1.
         21   -1    0    0  501  502 -0.00000000000E+00 -0.00000000000E+00 -0.49715270244E+03  0.49715270244E+03  0.00000000000E+00 0. -1.
      99925    2    1    2    0    0 -0.56578457697E+02 -0.78565963881E+02 -0.26880684478E+03  0.38854931767E+03  0.26332436254E+03 0.  0.
         25    1    3    3    0    0 -0.39167833750E+01 -0.53543889051E+02 -0.92184226510E+02  0.16440112215E+03  0.12509000000E+03 0.  0.
         25    1    3    3    0    0 -0.52661674322E+02 -0.25022074830E+02 -0.17662261827E+03  0.22414819552E+03  0.12509000000E+03 0.  0.
         25    1    1    2    0    0  0.56578457697E+02  0.78565963881E+02 -0.13134552652E+03  0.20560371590E+03  0.12509000000E+03 0.  0.
<mgrwt>
<rscale>  2 0.43919917E+03</rscale>
<asrwt>0</asrwt>
<pdfrwt beam="1">  1       21 0.14264755E-01 0.43919917E+03</pdfrwt>
<pdfrwt beam="2">  1       21 0.73110690E-01 0.43919917E+03</pdfrwt>
<totfact> 0.67024315E+04</totfact>
</mgrwt>
</event>
<event>
 6    0  0.1539497E-004  0.4595427E+03  0.7546771E-02  0.1024914E+00
         21   -1    0    0  502  501  0.00000000000E+00  0.00000000000E+00  0.89227061663E+02  0.89227061663E+02  0.00000000000E+00 0. -1.
         21   -1    0    0  501  502 -0.00000000000E+00 -0.00000000000E+00 -0.59169125508E+03  0.59169125508E+03  0.00000000000E+00 0. -1.
      99925    2    1    2    0    0  0.77519360906E+02  0.57386754948E+02 -0.41394654765E+03  0.49985100144E+03  0.26305282429E+03 0.  0.
         25    1    3    3    0    0  0.16556769305E+01  0.46238080211E+02 -0.20321391074E+03  0.24307221756E+03  0.12509000000E+03 0.  0.
         25    1    1    2    0    0 -0.77519360906E+02 -0.57386754948E+02 -0.88517645760E+02  0.18106731530E+03  0.12509000000E+03 0.  0.
         25    1    3    3    0    0  0.75863683975E+02  0.11148674737E+02 -0.21073263691E+03  0.25677878388E+03  0.12509000000E+03 0.  0.
<mgrwt>
<rscale>  2 0.45954269E+03</rscale>
<asrwt>0</asrwt>
<pdfrwt beam="1">  1       21 0.13121627E-01 0.45954269E+03</pdfrwt>
<pdfrwt beam="2">  1       21 0.87013419E-01 0.45954269E+03</pdfrwt>
<totfact> 0.52063145E+04</totfact>
</mgrwt>
</event>
<event>
 6    0  0.1539497E-004  0.4380276E+03  0.7546771E-02  0.1031354E+00
         21   -1    0    0  502  501  0.00000000000E+00  0.00000000000E+00  0.15414191148E+03  0.15414191148E+03  0.00000000000E+00 0.  1.
         21   -1    0    0  501  502 -0.00000000000E+00 -0.00000000000E+00 -0.31118759153E+03  0.31118759153E+03  0.00000000000E+00 0.  1.
      99925    2    1    2    0    0  0.62081905368E+02 -0.41208627195E+02 -0.16536707377E+03  0.31949031889E+03  0.26301232072E+03 0.  0.
         25    1    3    3    0    0  0.33594141370E+02 -0.56492724936E+02 -0.63293178853E+02  0.15483387515E+03  0.12509000000E+03 0.  0.
         25    1    1    2    0    0 -0.62081905368E+02  0.41208627195E+02  0.83213937191E+01  0.14583918411E+03  0.12509000000E+03 0.  0.
         25    1    3    3    0    0  0.28487763998E+02  0.15284097742E+02 -0.10207389492E+03  0.16465644374E+03  0.12509000000E+03 0.  0.
<mgrwt>
<rscale>  2 0.43802763E+03</rscale>
<asrwt>0</asrwt>
<pdfrwt beam="1">  1       21 0.22667928E-01 0.43802763E+03</pdfrwt>
<pdfrwt beam="2">  1       21 0.45762880E-01 0.43802763E+03</pdfrwt>
<totfact> 0.77739201E+04</totfact>
</mgrwt>
</event>
<event>
 6    0  0.1539497E-004  0.3926453E+03  0.7546771E-02  0.1046357E+00
         21   -1    0    0  502  501  0.00000000000E+00  0.00000000000E+00  0.54992206771E+02  0.54992206771E+02  0.00000000000E+00 0.  1.
         21   -1    0    0  501  502 -0.00000000000E+00 -0.00000000000E+00 -0.70087370969E+03  0.70087370969E+03  0.00000000000E+00 0.  1.
      99925    2    1    2    0    0  0.56618822330E+01 -0.60694232219E+00 -0.48748207124E+03  0.55394931649E+03  0.26303735507E+03 0.  0.
         25    1    3    3    0    0  0.39788204242E+02 -0.16851389107E+02 -0.25216492970E+03  0.28478365540E+03  0.12509000000E+03 0.  0.
         25    1    3    3    0    0 -0.34126322009E+02  0.16244446785E+02 -0.23531714155E+03  0.26916566109E+03  0.12509000000E+03 0.  0.
         25    1    1    2    0    0 -0.56618822330E+01  0.60694232219E+00 -0.15839943167E+03  0.20191659997E+03  0.12509000000E+03 0.  0.
<mgrwt>
<rscale>  2 0.39264535E+03</rscale>
<asrwt>0</asrwt>
<pdfrwt beam="1">  1       21 0.80870898E-02 0.39264535E+03</pdfrwt>
<pdfrwt beam="2">  1       21 0.10306966E+00 0.39264535E+03</pdfrwt>
<totfact> 0.84258557E+04</totfact>
</mgrwt>
</event>
<event>
 6    0  0.1545891E-004  0.4069321E+03  0.7546771E-02  0.1041405E+00
         21   -1    0    0  502  501  0.00000000000E+00  0.00000000000E+00  0.29529568333E+03  0.29529568333E+03  0.00000000000E+00 0. -1.
         21   -1    0    0  501  502 -0.00000000000E+00 -0.00000000000E+00 -0.14019315090E+03  0.14019315090E+03  0.00000000000E+00 0. -1.
      99925    2    1    2    0    0  0.23560069054E+02  0.54890688431E+02  0.99664357118E+02  0.28619394513E+03  0.26154526496E+03 0.  0.
         25    1    3    3    0    0 -0.25939131179E+02  0.20739338773E+02  0.45034868345E+02  0.13703505452E+03  0.12509000000E+03 0.  0.
         25    1    3    3    0    0  0.49499200233E+02  0.34151349657E+02  0.54629488773E+02  0.14915889062E+03  0.12509000000E+03 0.  0.
         25    1    1    2    0    0 -0.23560069054E+02 -0.54890688431E+02  0.55438175312E+02  0.14929488910E+03  0.12509000000E+03 0.  0.
<mgrwt>
<rscale>  2 0.40693209E+03</rscale>
<asrwt>0</asrwt>
<pdfrwt beam="1">  1       21 0.43425836E-01 0.40693209E+03</pdfrwt>
<pdfrwt beam="2">  1       21 0.20616640E-01 0.40693209E+03</pdfrwt>
<totfact> 0.10466767E+05</totfact>
</mgrwt>
</event>
<event>
 6    0  0.1539497E-004  0.3951046E+03  0.7546771E-02  0.1045488E+00
         21   -1    0    0  502  501  0.00000000000E+00  0.00000000000E+00  0.14164984370E+03  0.14164984370E+03  0.00000000000E+00 0.  1.
         21   -1    0    0  501  502 -0.00000000000E+00 -0.00000000000E+00 -0.27551686043E+03  0.27551686043E+03  0.00000000000E+00 0.  1.
      99925    2    1    2    0    0 -0.16708473120E+02 -0.15854160436E+02 -0.62572054304E+02  0.27135515710E+03  0.26303579952E+03 0.  0.
         25    1    1    2    0    0  0.16708473120E+02  0.15854160436E+02 -0.71294962425E+02  0.14581154702E+03  0.12509000000E+03 0.  0.
         25    1    3    3    0    0  0.16570543461E+01 -0.95564861498E+01  0.92602750189E+01  0.12580672895E+03  0.12509000000E+03 0.  0.
         25    1    3    3    0    0 -0.18365527466E+02 -0.62976742866E+01 -0.71832329323E+02  0.14554842815E+03  0.12509000000E+03 0.  0.
<mgrwt>
<rscale>  2 0.39510465E+03</rscale>
<asrwt>0</asrwt>
<pdfrwt beam="1">  1       21 0.20830860E-01 0.39510465E+03</pdfrwt>
<pdfrwt beam="2">  1       21 0.40517185E-01 0.39510465E+03</pdfrwt>
<totfact> 0.11873791E+05</totfact>
</mgrwt>
</event>
<event>
 6    0  0.1539497E-004  0.6895586E+03  0.7546771E-02  0.9735257E-01
         21   -1    0    0  502  501  0.00000000000E+00  0.00000000000E+00  0.52931667085E+03  0.52931667085E+03  0.00000000000E+00 0. -1.
         21   -1    0    0  501  502 -0.00000000000E+00 -0.00000000000E+00 -0.22457781401E+03  0.22457781401E+03  0.00000000000E+00 0. -1.
      99925    2    1    2    0    0  0.98056739523E+02  0.26127417650E+03  0.17969182711E+03  0.42349535166E+03  0.26302060885E+03 0.  0.
         25    1    1    2    0    0 -0.98056739523E+02 -0.26127417650E+03  0.12504702973E+03  0.33039913320E+03  0.12509000000E+03 0.  0.
         25    1    3    3    0    0  0.72869769640E+02  0.10786316065E+03  0.11356817379E+03  0.21328315206E+03  0.12509000000E+03 0.  0.
         25    1    3    3    0    0  0.25186969883E+02  0.15341101585E+03  0.66123653317E+02  0.21021219961E+03  0.12509000000E+03 0.  0.
<mgrwt>
<rscale>  2 0.68955864E+03</rscale>
<asrwt>0</asrwt>
<pdfrwt beam="1">  1       21 0.77840687E-01 0.68955864E+03</pdfrwt>
<pdfrwt beam="2">  1       21 0.33026149E-01 0.68955864E+03</pdfrwt>
<totfact> 0.10928382E+04</totfact>
</mgrwt>
</event>
<event>
 6    0  0.1539497E-004  0.4217100E+03  0.7546771E-02  0.1036511E+00
         21   -1    0    0  502  501  0.00000000000E+00  0.00000000000E+00  0.55493505071E+03  0.55493505071E+03  0.00000000000E+00 0.  1.
         21   -1    0    0  501  502 -0.00000000000E+00 -0.00000000000E+00 -0.80117166072E+02  0.80117166072E+02  0.00000000000E+00 0.  1.
      99925    2    1    2    0    0 -0.16905974159E+02  0.75899401254E+02  0.30623189828E+03  0.41118780699E+03  0.26315566881E+03 0.  0.
         25    1    3    3    0    0 -0.27036243033E+02  0.16175292517E+01  0.15650953372E+03  0.20217892344E+03  0.12509000000E+03 0.  0.
         25    1    1    2    0    0  0.16905974159E+02 -0.75899401254E+02  0.16858598636E+03  0.22386440979E+03  0.12509000000E+03 0.  0.
         25    1    3    3    0    0  0.10130268874E+02  0.74281872002E+02  0.14972236455E+03  0.20900888355E+03  0.12509000000E+03 0.  0.
<mgrwt>
<rscale>  2 0.42170996E+03</rscale>
<asrwt>0</asrwt>
<pdfrwt beam="1">  1       21 0.81608094E-01 0.42170996E+03</pdfrwt>
<pdfrwt beam="2">  1       21 0.11781936E-01 0.42170996E+03</pdfrwt>
<totfact> 0.74224558E+04</totfact>
</mgrwt>
</event>
<event>
 6    0  0.1539497E-004  0.4005208E+03  0.7546771E-02  0.1043599E+00
         21   -1    0    0  502  501  0.00000000000E+00  0.00000000000E+00  0.20356944130E+03  0.20356944130E+03  0.00000000000E+00 0. -1.
         21   -1    0    0  501  502 -0.00000000000E+00 -0.00000000000E+00 -0.19700518280E+03  0.19700518280E+03  0.00000000000E+00 0. -1.
      99925    2    1    2    0    0  0.18944079923E+02  0.40092806126E+02 -0.84227790566E+01  0.26701403612E+03  0.26317150494E+03 0.  0.
         25    1    3    3    0    0  0.27331286580E+02  0.39978377760E+02  0.26802072384E+02  0.13678862927E+03  0.12509000000E+03 0.  0.
         25    1    3    3    0    0 -0.83872066573E+01  0.11442836623E+00 -0.35224851440E+02  0.13022540685E+03  0.12509000000E+03 0.  0.
         25    1    1    2    0    0 -0.18944079923E+02 -0.40092806126E+02  0.14987037559E+02  0.13356058798E+03  0.12509000000E+03 0.  0.
<mgrwt>
<rscale>  2 0.40052084E+03</rscale>
<asrwt>0</asrwt>
<pdfrwt beam="1">  1       21 0.29936683E-01 0.40052084E+03</pdfrwt>
<pdfrwt beam="2">  1       21 0.28971350E-01 0.40052084E+03</pdfrwt>
<totfact> 0.11526146E+05</totfact>
</mgrwt>
</event>
<event>
 6    0  0.1539497E-004  0.4187795E+03  0.7546771E-02  0.1037464E+00
         21   -1    0    0  502  501  0.00000000000E+00  0.00000000000E+00  0.59078850846E+03  0.59078850846E+03  0.00000000000E+00 0.  1.
         21   -1    0    0  501  502 -0.00000000000E+00 -0.00000000000E+00 -0.74212808988E+02  0.74212808988E+02  0.00000000000E+00 0.  1.
      99925    2    1    2    0    0  0.18210738748E+02  0.59770370553E+02  0.40083702016E+03  0.48348801714E+03  0.26303273138E+03 0.  0.
         25    1    3    3    0    0  0.46949520078E+02  0.16258434734E+02  0.18971119886E+03  0.23260791304E+03  0.12509000000E+03 0.  0.
         25    1    1    2    0    0 -0.18210738748E+02 -0.59770370553E+02  0.11573867931E+03  0.18151330031E+03  0.12509000000E+03 0.  0.
         25    1    3    3    0    0 -0.28738781329E+02  0.43511935818E+02  0.21112582130E+03  0.25088010410E+03  0.12509000000E+03 0.  0.
<mgrwt>
<rscale>  2 0.41877953E+03</rscale>
<asrwt>0</asrwt>
<pdfrwt beam="1">  1       21 0.86880661E-01 0.41877953E+03</pdfrwt>
<pdfrwt beam="2">  1       21 0.10913649E-01 0.41877953E+03</pdfrwt>
<totfact> 0.73738575E+04</totfact>
</mgrwt>
</event>
<event>
 6    0  0.1539497E-004  0.4400247E+03  0.7546771E-02  0.1030739E+00
         21   -1    0    0  502  501  0.00000000000E+00  0.00000000000E+00  0.30150149105E+02  0.30150149105E+02  0.00000000000E+00 0.  1.
         21   -1    0    0  501  502 -0.00000000000E+00 -0.00000000000E+00 -0.16054789329E+04  0.16054789329E+04  0.00000000000E+00 0.  1.
      99925    2    1    2    0    0 -0.36670970679E+02  0.84699325980E+02 -0.87867016770E+03  0.92183676530E+03  0.26306467330E+03 0.  0.
         25    1    3    3    0    0 -0.26987585080E+02  0.37952449092E+01 -0.35880145570E+03  0.38095764377E+03  0.12509000000E+03 0.  0.
         25    1    3    3    0    0 -0.96833855991E+01  0.80904081071E+02 -0.51986871200E+03  0.54087912153E+03  0.12509000000E+03 0.  0.
         25    1    1    2    0    0  0.36670970679E+02 -0.84699325980E+02 -0.69665861614E+03  0.71379231675E+03  0.12509000000E+03 0.  0.
<mgrwt>
<rscale>  2 0.44002468E+03</rscale>
<asrwt>0</asrwt>
<pdfrwt beam="1">  1       21 0.44338458E-02 0.44002468E+03</pdfrwt>
<pdfrwt beam="2">  1       21 0.23609982E+00 0.44002468E+03</pdfrwt>
<totfact> 0.23221600E+04</totfact>
</mgrwt>
</event>
<event>
 6    0  0.1539497E-004  0.4159651E+03  0.7546771E-02  0.1038388E+00
         21   -1    0    0  502  501  0.00000000000E+00  0.00000000000E+00  0.16368448520E+03  0.16368448520E+03  0.00000000000E+00 0.  1.
         21   -1    0    0  501  502 -0.00000000000E+00 -0.00000000000E+00 -0.26426897258E+03  0.26426897258E+03  0.00000000000E+00 0.  1.
      99925    2    1    2    0    0 -0.59148296046E+02 -0.22185138913E+01 -0.10535175863E+03  0.28948440815E+03  0.26305662278E+03 0.  0.
         25    1    3    3    0    0  0.64124649108E+01  0.99765800536E-01 -0.71542164926E+02  0.14424603676E+03  0.12509000000E+03 0.  0.
         25    1    3    3    0    0 -0.65560760956E+02 -0.23182796919E+01 -0.33809593704E+02  0.14523837139E+03  0.12509000000E+03 0.  0.
         25    1    1    2    0    0  0.59148296046E+02  0.22185138913E+01  0.47672712461E+01  0.13846904963E+03  0.12509000000E+03 0.  0.
<mgrwt>
<rscale>  2 0.41596505E+03</rscale>
<asrwt>0</asrwt>
<pdfrwt beam="1">  1       21 0.24071248E-01 0.41596505E+03</pdfrwt>
<pdfrwt beam="2">  1       21 0.38863084E-01 0.41596505E+03</pdfrwt>
<totfact> 0.97582193E+04</totfact>
</mgrwt>
</event>
<event>
 6    0  0.1539497E-004  0.4521118E+03  0.7546771E-02  0.1027094E+00
         21   -1    0    0  502  501  0.00000000000E+00  0.00000000000E+00  0.14043579602E+03  0.14043579602E+03  0.00000000000E+00 0.  1.
         21   -1    0    0  501  502 -0.00000000000E+00 -0.00000000000E+00 -0.36387643782E+03  0.36387643782E+03  0.00000000000E+00 0.  1.
      99925    2    1    2    0    0  0.90019786928E+01  0.61847359826E+02 -0.24188264148E+03  0.36326703899E+03  0.26372257740E+03 0.  0.
         25    1    3    3    0    0 -0.12694463923E+01 -0.11503379087E+02 -0.10944192545E+03  0.16661027091E+03  0.12509000000E+03 0.  0.
         25    1    3    3    0    0  0.10271425085E+02  0.73350738913E+02 -0.13244071603E+03  0.19665676809E+03  0.12509000000E+03 0.  0.
         25    1    1    2    0    0 -0.90019786928E+01 -0.61847359826E+02  0.18441999670E+02  0.14104519485E+03  0.12509000000E+03 0.  0.
<mgrwt>
<rscale>  2 0.45211183E+03</rscale>
<asrwt>0</asrwt>
<pdfrwt beam="1">  1       21 0.20652323E-01 0.45211183E+03</pdfrwt>
<pdfrwt beam="2">  1       21 0.53511241E-01 0.45211183E+03</pdfrwt>
<totfact> 0.66479705E+04</totfact>
</mgrwt>
</event>
<event>
 6    0  0.1539497E-004  0.4705563E+03  0.7546771E-02  0.1021763E+00
         21   -1    0    0  502  501  0.00000000000E+00  0.00000000000E+00  0.95664384160E+02  0.95664384160E+02  0.00000000000E+00 0. -1.
         21   -1    0    0  501  502 -0.00000000000E+00 -0.00000000000E+00 -0.57864586568E+03  0.57864586568E+03  0.00000000000E+00 0. -1.
      99925    2    1    2    0    0  0.90786627706E+02  0.66721132508E+02 -0.21521615843E+03  0.35801972257E+03  0.26299468741E+03 0.  0.
         25    1    3    3    0    0  0.12731316453E+02  0.57816609772E+02 -0.10293960334E+03  0.17247874309E+03  0.12509000000E+03 0.  0.
         25    1    3    3    0    0  0.78055311253E+02  0.89045227357E+01 -0.11227655509E+03  0.18554097947E+03  0.12509000000E+03 0.  0.
         25    1    1    2    0    0 -0.90786627706E+02 -0.66721132508E+02 -0.26776532309E+03  0.31629052727E+03  0.12509000000E+03 0.  0.
<mgrwt>
<rscale>  2 0.47055627E+03</rscale>
<asrwt>0</asrwt>
<pdfrwt beam="1">  1       21 0.14068292E-01 0.47055627E+03</pdfrwt>
<pdfrwt beam="2">  1       21 0.85094980E-01 0.47055627E+03</pdfrwt>
<totfact> 0.48139754E+04</totfact>
</mgrwt>
</event>
<event>
 5    0  0.1539497E-004  0.3987137E+03  0.7546771E-02  0.1044226E+00
         21   -1    0    0  502  501  0.00000000000E+00  0.00000000000E+00  0.37378338069E+03  0.37378338069E+03  0.00000000000E+00 0.  1.
         21   -1    0    0  501  502 -0.00000000000E+00 -0.00000000000E+00 -0.10632672665E+03  0.10632672665E+03  0.00000000000E+00 0.  1.
         25    1    1    2    0    0  0.81524343601E+01  0.55016705393E+02  0.73809846869E+02  0.15552717336E+03  0.12509000000E+03 0.  0.
         25    1    1    2    0    0  0.81769468489E+01 -0.29923389961E+02  0.72406147841E+02  0.14782567460E+03  0.12509000000E+03 0.  0.
         25    1    1    2    0    0 -0.16329381209E+02 -0.25093315432E+02  0.12124065932E+03  0.17675725938E+03  0.12509000000E+03 0.  0.
<mgrwt>
<rscale>  2 0.39871375E+03</rscale>
<asrwt>0</asrwt>
<pdfrwt beam="1">  1       21 0.54968144E-01 0.39871375E+03</pdfrwt>
<pdfrwt beam="2">  1       21 0.15636283E-01 0.39871375E+03</pdfrwt>
<totfact> 0.10709644E+05</totfact>
</mgrwt>
</event>
<event>
 6    0  0.1539497E-004  0.3950837E+03  0.7546771E-02  0.1045495E+00
         21   -1    0    0  502  501  0.00000000000E+00  0.00000000000E+00  0.18771728669E+03  0.18771728669E+03  0.00000000000E+00 0.  1.
         21   -1    0    0  501  502 -0.00000000000E+00 -0.00000000000E+00 -0.20788057260E+03  0.20788057260E+03  0.00000000000E+00 0.  1.
      99925    2    1    2    0    0 -0.48660140423E+01  0.73941243165E+00  0.20872007527E+02  0.26385709783E+03  0.26298422491E+03 0.  0.
         25    1    1    2    0    0  0.48660140423E+01 -0.73941243165E+00 -0.41035293435E+02  0.13174076146E+03  0.12509000000E+03 0.  0.
         25    1    3    3    0    0  0.36191452531E+01 -0.36483914913E+02  0.26213106403E+02  0.13296168360E+03  0.12509000000E+03 0.  0.
         25    1    3    3    0    0 -0.84851592954E+01  0.37223327344E+02 -0.53410988764E+01  0.13089541422E+03  0.12509000000E+03 0.  0.
<mgrwt>
<rscale>  2 0.39508367E+03</rscale>
<asrwt>0</asrwt>
<pdfrwt beam="1">  1       21 0.27605484E-01 0.39508367E+03</pdfrwt>
<pdfrwt beam="2">  1       21 0.30570672E-01 0.39508367E+03</pdfrwt>
<totfact> 0.12172650E+05</totfact>
</mgrwt>
</event>
<event>
 6    0  0.1539497E-004  0.4051202E+03  0.7546771E-02  0.1042021E+00
         21   -1    0    0  502  501  0.00000000000E+00  0.00000000000E+00  0.51001040363E+02  0.51001040363E+02  0.00000000000E+00 0. -1.
         21   -1    0    0  501  502 -0.00000000000E+00 -0.00000000000E+00 -0.80450491647E+03  0.80450491647E+03  0.00000000000E+00 0. -1.
      99925    2    1    2    0    0 -0.16040846721E+02 -0.38532771380E+02 -0.57221839362E+03  0.63133187829E+03  0.26344632718E+03 0.  0.
         25    1    3    3    0    0 -0.17949132293E+02 -0.21669067052E+02 -0.38281197704E+03  0.40371306356E+03  0.12509000000E+03 0.  0.
         25    1    1    2    0    0  0.16040846721E+02  0.38532771380E+02 -0.18128548248E+03  0.22417407855E+03  0.12509000000E+03 0.  0.
         25    1    3    3    0    0  0.19082855716E+01 -0.16863704328E+02 -0.18940641658E+03  0.22761881473E+03  0.12509000000E+03 0.  0.
<mgrwt>
<rscale>  2 0.40512017E+03</rscale>
<asrwt>0</asrwt>
<pdfrwt beam="1">  1       21 0.75001533E-02 0.40512017E+03</pdfrwt>
<pdfrwt beam="2">  1       21 0.11830954E+00 0.40512017E+03</pdfrwt>
<totfact> 0.68208322E+04</totfact>
</mgrwt>
</event>
<event>
 6    0  0.1539497E-004  0.4443202E+03  0.7546771E-02  0.1029429E+00
         21   -1    0    0  502  501  0.00000000000E+00  0.00000000000E+00  0.10800790690E+04  0.10800790690E+04  0.00000000000E+00 0. -1.
         21   -1    0    0  501  502 -0.00000000000E+00 -0.00000000000E+00 -0.45695835287E+02  0.45695835287E+02  0.00000000000E+00 0. -1.
      99925    2    1    2    0    0  0.89475258783E+02 -0.42627512010E+02  0.72558892265E+03  0.77817691614E+03  0.26316743992E+03 0.  0.
         25    1    3    3    0    0  0.45317651951E+01 -0.63300670292E+01  0.30384404690E+03  0.32867813979E+03  0.12509000000E+03 0.  0.
         25    1    3    3    0    0  0.84943493588E+02 -0.36297444981E+02  0.42174487575E+03  0.44949877635E+03  0.12509000000E+03 0.  0.
         25    1    1    2    0    0 -0.89475258783E+02  0.42627512010E+02  0.30879431104E+03  0.34759798812E+03  0.12509000000E+03 0.  0.
<mgrwt>
<rscale>  2 0.44432022E+03</rscale>
<asrwt>0</asrwt>
<pdfrwt beam="1">  1       21 0.15883514E+00 0.44432022E+03</pdfrwt>
<pdfrwt beam="2">  1       21 0.67199765E-02 0.44432022E+03</pdfrwt>
<totfact> 0.37638935E+04</totfact>
</mgrwt>
</event>
<event>
 6    0  0.1539497E-004  0.3932115E+03  0.7546771E-02  0.1046156E+00
         21   -1    0    0  502  501  0.00000000000E+00  0.00000000000E+00  0.32148544793E+02  0.32148544793E+02  0.00000000000E+00 0. -1.
         21   -1    0    0  501  502 -0.00000000000E+00 -0.00000000000E+00 -0.12023504022E+04  0.12023504022E+04  0.00000000000E+00 0. -1.
      99925    2    1    2    0    0 -0.36800472280E+01 -0.17429854577E+02 -0.86117938869E+03  0.90064308461E+03  0.26307923476E+03 0.  0.
         25    1    3    3    0    0 -0.37320174537E+02 -0.66178993729E+00 -0.49265468760E+03  0.50965614163E+03  0.12509000000E+03 0.  0.
         25    1    3    3    0    0  0.33640127309E+02 -0.16768064639E+02 -0.36852470110E+03  0.39098694297E+03  0.12509000000E+03 0.  0.
         25    1    1    2    0    0  0.36800472280E+01  0.17429854577E+02 -0.30902246868E+03  0.33385586235E+03  0.12509000000E+03 0.  0.
<mgrwt>
<rscale>  2 0.39321147E+03</rscale>
<asrwt>0</asrwt>
<pdfrwt beam="1">  1       21 0.47277277E-02 0.39321147E+03</pdfrwt>
<pdfrwt beam="2">  1       21 0.17681622E+00 0.39321147E+03</pdfrwt>
<totfact> 0.51904774E+04</totfact>
</mgrwt>
</event>
<event>
 6    0  0.1939226E-004  0.4052276E+03  0.7546771E-02  0.1041984E+00
         21   -1    0    0  502  501  0.00000000000E+00  0.00000000000E+00  0.25261654485E+03  0.25261654485E+03  0.00000000000E+00 0. -1.
         21   -1    0    0  501  502 -0.00000000000E+00 -0.00000000000E+00 -0.16250856115E+03  0.16250856115E+03  0.00000000000E+00 0. -1.
      99925    2    1    2    0    0 -0.38246690642E+02  0.17648778782E+02  0.23695354069E+02  0.26736708012E+03  0.26296272928E+03 0.  0.
         25    1    3    3    0    0 -0.53982965771E+02 -0.78890839448E+01  0.24913790677E+02  0.13872491955E+03  0.12509000000E+03 0.  0.
         25    1    1    2    0    0  0.38246690642E+02 -0.17648778782E+02  0.66412629633E+02  0.14775802588E+03  0.12509000000E+03 0.  0.
         25    1    3    3    0    0  0.15736275130E+02  0.25537862727E+02 -0.12184366083E+01  0.12864216057E+03  0.12509000000E+03 0.  0.
<mgrwt>
<rscale>  2 0.40522760E+03</rscale>
<asrwt>0</asrwt>
<pdfrwt beam="1">  1       21 0.37149492E-01 0.40522760E+03</pdfrwt>
<pdfrwt beam="2">  1       21 0.23898318E-01 0.40522760E+03</pdfrwt>
<totfact> 0.10872435E+05</totfact>
</mgrwt>
</event>
<event>
 6    0  0.1539497E-004  0.4324775E+03  0.7546771E-02  0.1033080E+00
         21   -1    0    0  502  501  0.00000000000E+00  0.00000000000E+00  0.92836413206E+02  0.92836413206E+02  0.00000000000E+00 0. -1.
         21   -1    0    0  501  502 -0.00000000000E+00 -0.00000000000E+00 -0.50367294461E+03  0.50367294461E+03  0.00000000000E+00 0. -1.
      99925    2    1    2    0    0  0.35766297776E+02  0.69690017812E+02 -0.20209482373E+03  0.34086011518E+03  0.26307294369E+03 0.  0.
         25    1    1    2    0    0 -0.35766297776E+02 -0.69690017812E+02 -0.20874170767E+03  0.25564924263E+03  0.12509000000E+03 0.  0.
         25    1    3    3    0    0  0.36866950066E+02  0.11507976765E+02 -0.13276853118E+03  0.18645802881E+03  0.12509000000E+03 0.  0.
         25    1    3    3    0    0 -0.11006522894E+01  0.58182041048E+02 -0.69326292556E+02  0.15440208637E+03  0.12509000000E+03 0.  0.
<mgrwt>
<rscale>  2 0.43247747E+03</rscale>
<asrwt>0</asrwt>
<pdfrwt beam="1">  1       21 0.13652414E-01 0.43247747E+03</pdfrwt>
<pdfrwt beam="2">  1       21 0.74069549E-01 0.43247747E+03</pdfrwt>
<totfact> 0.70651879E+04</totfact>
</mgrwt>
</event>
<event>
 6    0  0.1539497E-004  0.4097186E+03  0.7546771E-02  0.1040465E+00
         21   -1    0    0  502  501  0.00000000000E+00  0.00000000000E+00  0.95484090079E+03  0.95484090079E+03  0.00000000000E+00 0.  1.
         21   -1    0    0  501  502 -0.00000000000E+00 -0.00000000000E+00 -0.43952172273E+02  0.43952172273E+02  0.00000000000E+00 0.  1.
      99925    2    1    2    0    0 -0.30680144494E+02 -0.29889169738E+02  0.70954050661E+03  0.75791291967E+03  0.26296317146E+03 0.  0.
         25    1    3    3    0    0 -0.49232376871E+02  0.17891492394E+01  0.31842422926E+03  0.34564219341E+03  0.12509000000E+03 0.  0.
         25    1    1    2    0    0  0.30680144494E+02  0.29889169738E+02  0.20134822190E+03  0.24088015339E+03  0.12509000000E+03 0.  0.
         25    1    3    3    0    0  0.18552232377E+02 -0.31678318977E+02  0.39111627735E+03  0.41227072626E+03  0.12509000000E+03 0.  0.
<mgrwt>
<rscale>  2 0.40971859E+03</rscale>
<asrwt>0</asrwt>
<pdfrwt beam="1">  1       21 0.14041777E+00 0.40971859E+03</pdfrwt>
<pdfrwt beam="2">  1       21 0.64635553E-02 0.40971859E+03</pdfrwt>
<totfact> 0.56794065E+04</totfact>
</mgrwt>
</event>
<event>
 6    0  0.1539497E-004  0.4140111E+03  0.7546771E-02  0.1039033E+00
         21   -1    0    0  502  501  0.00000000000E+00  0.00000000000E+00  0.21600010302E+02  0.21600010302E+02  0.00000000000E+00 0. -1.
         21   -1    0    0  501  502 -0.00000000000E+00 -0.00000000000E+00 -0.19838553486E+04  0.19838553486E+04  0.00000000000E+00 0. -1.
      99925    2    1    2    0    0  0.63184492487E+01  0.66220455672E+02 -0.12261086953E+04  0.12557991312E+04  0.26318026868E+03 0.  0.
         25    1    1    2    0    0 -0.63184492487E+01 -0.66220455672E+02 -0.73614664302E+03  0.74965622767E+03  0.12509000000E+03 0.  0.
         25    1    3    3    0    0  0.33793726416E+02  0.13192363749E+02 -0.50772599958E+03  0.52416529183E+03  0.12509000000E+03 0.  0.
         25    1    3    3    0    0 -0.27475277167E+02  0.53028091923E+02 -0.71838269570E+03  0.73163383941E+03  0.12509000000E+03 0.  0.
<mgrwt>
<rscale>  2 0.41401109E+03</rscale>
<asrwt>0</asrwt>
<pdfrwt beam="1">  1       21 0.31764710E-02 0.41401109E+03</pdfrwt>
<pdfrwt beam="2">  1       21 0.29174353E+00 0.41401109E+03</pdfrwt>
<totfact> 0.18979773E+04</totfact>
</mgrwt>
</event>
<event>
 6    0  0.1539497E-004  0.4749777E+03  0.7546771E-02  0.1020525E+00
         21   -1    0    0  502  501  0.00000000000E+00  0.00000000000E+00  0.87150884948E+03  0.87150884948E+03  0.00000000000E+00 0. -1.
         21   -1    0    0  501  502 -0.00000000000E+00 -0.00000000000E+00 -0.64716433964E+02  0.64716433964E+02  0.00000000000E+00 0. -1.
      99925    2    1    2    0    0 -0.96480515729E+02 -0.70499581248E+01  0.67318194690E+03  0.72920485631E+03  0.26307336813E+03 0.  0.
         25    1    3    3    0    0 -0.17470897758E+02  0.19237868402E+02  0.26367121136E+03  0.29299376043E+03  0.12509000000E+03 0.  0.
         25    1    3    3    0    0 -0.79009617971E+02 -0.26287826527E+02  0.40951073553E+03  0.43621109588E+03  0.12509000000E+03 0.  0.
         25    1    1    2    0    0  0.96480515729E+02  0.70499581248E+01  0.13361046862E+03  0.20702042713E+03  0.12509000000E+03 0.  0.
<mgrwt>
<rscale>  2 0.47497766E+03</rscale>
<asrwt>0</asrwt>
<pdfrwt beam="1">  1       21 0.12816306E+00 0.47497766E+03</pdfrwt>
<pdfrwt beam="2">  1       21 0.95171232E-02 0.47497766E+03</pdfrwt>
<totfact> 0.35774789E+04</totfact>
</mgrwt>
</event>
<event>
 6    0  0.1539497E-004  0.4474271E+03  0.7546771E-02  0.1028492E+00
         21   -1    0    0  502  501  0.00000000000E+00  0.00000000000E+00  0.37981831148E+03  0.37981831148E+03  0.00000000000E+00 0.  1.
         21   -1    0    0  501  502 -0.00000000000E+00 -0.00000000000E+00 -0.13176758803E+03  0.13176758803E+03  0.00000000000E+00 0.  1.
      99925    2    1    2    0    0  0.10372599726E+03 -0.17080917991E+01  0.13299267343E+03  0.31246818794E+03  0.26303482128E+03 0.  0.
         25    1    3    3    0    0  0.24721577276E+02  0.13166640541E+02  0.93358803840E+02  0.15858086631E+03  0.12509000000E+03 0.  0.
         25    1    1    2    0    0 -0.10372599726E+03  0.17080917991E+01  0.11505805001E+03  0.19911771156E+03  0.12509000000E+03 0.  0.
         25    1    3    3    0    0  0.79004419987E+02 -0.14874732340E+02  0.39633869593E+02  0.15388732163E+03  0.12509000000E+03 0.  0.
<mgrwt>
<rscale>  2 0.44742706E+03</rscale>
<asrwt>0</asrwt>
<pdfrwt beam="1">  1       21 0.55855634E-01 0.44742706E+03</pdfrwt>
<pdfrwt beam="2">  1       21 0.19377587E-01 0.44742706E+03</pdfrwt>
<totfact> 0.68487973E+04</totfact>
</mgrwt>
</event>
<event>
 6    0  0.1539497E-004  0.4129722E+03  0.7546771E-02  0.1039378E+00
         21   -1    0    0  502  501  0.00000000000E+00  0.00000000000E+00  0.10190114242E+04  0.10190114242E+04  0.00000000000E+00 0.  1.
         21   -1    0    0  501  502 -0.00000000000E+00 -0.00000000000E+00 -0.41841053304E+02  0.41841053304E+02  0.00000000000E+00 0.  1.
      99925    2    1    2    0    0  0.12855743777E+02  0.63958606897E+02  0.60836807556E+03  0.66598716542E+03  0.26300421213E+03 0.  0.
         25    1    1    2    0    0 -0.12855743777E+02 -0.63958606897E+02  0.36880229533E+03  0.39486531208E+03  0.12509000000E+03 0.  0.
         25    1    3    3    0    0  0.16136658873E+02  0.57961086963E+02  0.39351134700E+03  0.41727517022E+03  0.12509000000E+03 0.  0.
         25    1    3    3    0    0 -0.32809150965E+01  0.59975199339E+01  0.21485672856E+03  0.24871199520E+03  0.12509000000E+03 0.  0.
<mgrwt>
<rscale>  2 0.41297221E+03</rscale>
<asrwt>0</asrwt>
<pdfrwt beam="1">  1       21 0.14985461E+00 0.41297221E+03</pdfrwt>
<pdfrwt beam="2">  1       21 0.61530967E-02 0.41297221E+03</pdfrwt>
<totfact> 0.51938445E+04</totfact>
</mgrwt>
</event>
<event>
 6    0  0.1539497E-004  0.4132886E+03  0.7546771E-02  0.1039273E+00
         21   -1    0    0  502  501  0.00000000000E+00  0.00000000000E+00  0.14431137616E+02  0.14431137616E+02  0.00000000000E+00 0. -1.
         21   -1    0    0  501  502 -0.00000000000E+00 -0.00000000000E+00 -0.29590091353E+04  0.29590091353E+04  0.00000000000E+00 0. -1.
      99925    2    1    2    0    0  0.49085945963E+02 -0.45077530208E+02 -0.19062316550E+04  0.19254650589E+04  0.26316374471E+03 0.  0.
         25    1    3    3    0    0  0.65823493513E+02 -0.20156074039E+02 -0.98468648721E+03  0.99498441486E+03  0.12509000000E+03 0.  0.
         25    1    3    3    0    0 -0.16737547550E+02 -0.24921456169E+02 -0.92154516781E+03  0.93048064401E+03  0.12509000000E+03 0.  0.
         25    1    1    2    0    0 -0.49085945963E+02  0.45077530208E+02 -0.10383463427E+04  0.10479752141E+04  0.12509000000E+03 0.  0.
<mgrwt>
<rscale>  2 0.41328861E+03</rscale>
<asrwt>0</asrwt>
<pdfrwt beam="1">  1       21 0.21222244E-02 0.41328861E+03</pdfrwt>
<pdfrwt beam="2">  1       21 0.43514875E+00 0.41328861E+03</pdfrwt>
<totfact> 0.47668694E+03</totfact>
</mgrwt>
</event>
<event>
 6    0  0.1539497E-004  0.4614312E+03  0.7546771E-02  0.1024367E+00
         21   -1    0    0  502  501  0.00000000000E+00  0.00000000000E+00  0.72988516306E+03  0.72988516306E+03  0.00000000000E+00 0. -1.
         21   -1    0    0  501  502 -0.00000000000E+00 -0.00000000000E+00 -0.72928859444E+02  0.72928859444E+02  0.00000000000E+00 0. -1.
      99925    2    1    2    0    0  0.37446477383E+02 -0.87403237337E+02  0.28565094330E+03  0.39963075988E+03  0.26280547609E+03 0.  0.
         25    1    1    2    0    0 -0.37446477383E+02  0.87403237337E+02  0.37130536032E+03  0.40318326263E+03  0.12509000000E+03 0.  0.
         25    1    3    3    0    0  0.88349097788E+01 -0.74236871075E+02  0.18787312110E+03  0.23776666375E+03  0.12509000000E+03 0.  0.
         25    1    3    3    0    0  0.28611567604E+02 -0.13166366263E+02  0.97777822203E+02  0.16186409613E+03  0.12509000000E+03 0.  0.
<mgrwt>
<rscale>  2 0.46143122E+03</rscale>
<asrwt>0</asrwt>
<pdfrwt beam="1">  1       21 0.10733605E+00 0.46143122E+03</pdfrwt>
<pdfrwt beam="2">  1       21 0.10724833E-01 0.46143122E+03</pdfrwt>
<totfact> 0.45299127E+04</totfact>
</mgrwt>
</event>
<event>
 6    0  0.1539497E-004  0.5019671E+03  0.7546771E-02  0.1013267E+00
         21   -1    0    0  502  501  0.00000000000E+00  0.00000000000E+00  0.86919658765E+02  0.86919658765E+02  0.00000000000E+00 0. -1.
         21   -1    0    0  501  502 -0.00000000000E+00 -0.00000000000E+00 -0.72472390551E+03  0.72472390551E+03  0.00000000000E+00 0. -1.
      99925    2    1    2    0    0 -0.32954740486E+02 -0.14713380311E+03 -0.42920435955E+03  0.52546915595E+03  0.26299635106E+03 0.  0.
         25    1    3    3    0    0 -0.34315365336E+02 -0.11583752540E+03 -0.25782473314E+03  0.31099353322E+03  0.12509000000E+03 0.  0.
         25    1    3    3    0    0  0.13606248507E+01 -0.31296277710E+02 -0.17137962641E+03  0.21447562273E+03  0.12509000000E+03 0.  0.
         25    1    1    2    0    0  0.32954740486E+02  0.14713380311E+03 -0.20859988720E+03  0.28617440832E+03  0.12509000000E+03 0.  0.
<mgrwt>
<rscale>  2 0.50196715E+03</rscale>
<asrwt>0</asrwt>
<pdfrwt beam="1">  1       21 0.12782303E-01 0.50196715E+03</pdfrwt>
<pdfrwt beam="2">  1       21 0.10657704E+00 0.50196715E+03</pdfrwt>
<totfact> 0.33181302E+04</totfact>
</mgrwt>
</event>
<event>
 6    0  0.1539497E-004  0.4719770E+03  0.7546771E-02  0.1021364E+00
         21   -1    0    0  502  501  0.00000000000E+00  0.00000000000E+00  0.40390538086E+03  0.40390538086E+03  0.00000000000E+00 0.  1.
         21   -1    0    0  501  502 -0.00000000000E+00 -0.00000000000E+00 -0.13788026560E+03  0.13788026560E+03  0.00000000000E+00 0.  1.
      99925    2    1    2    0    0 -0.84438344198E+02 -0.51723662094E+02  0.25836352257E+03  0.38206282625E+03  0.26346749746E+03 0.  0.
         25    1    3    3    0    0 -0.35776827648E+01 -0.20761435503E+02  0.14285999542E+03  0.19105057815E+03  0.12509000000E+03 0.  0.
         25    1    3    3    0    0 -0.80860661433E+02 -0.30962226591E+02  0.11550352715E+03  0.19101224810E+03  0.12509000000E+03 0.  0.
         25    1    1    2    0    0  0.84438344198E+02  0.51723662094E+02  0.76615926893E+01  0.15972282020E+03  0.12509000000E+03 0.  0.
<mgrwt>
<rscale>  2 0.47197704E+03</rscale>
<asrwt>0</asrwt>
<pdfrwt beam="1">  1       21 0.59397850E-01 0.47197704E+03</pdfrwt>
<pdfrwt beam="2">  1       21 0.20276510E-01 0.47197704E+03</pdfrwt>
<totfact> 0.54679491E+04</totfact>
</mgrwt>
</event>
<event>
 6    0  0.1539497E-004  0.4490603E+03  0.7546771E-02  0.1028003E+00
         21   -1    0    0  502  501  0.00000000000E+00  0.00000000000E+00  0.85046368545E+02  0.85046368545E+02  0.00000000000E+00 0.  1.
         21   -1    0    0  501  502 -0.00000000000E+00 -0.00000000000E+00 -0.59278007369E+03  0.59278007369E+03  0.00000000000E+00 0.  1.
      99925    2    1    2    0    0 -0.10748334401E+03 -0.57366090829E+00 -0.32286587171E+03  0.43008338529E+03  0.26301397084E+03 0.  0.
         25    1    1    2    0    0  0.10748334401E+03  0.57366090829E+00 -0.18486783344E+03  0.24774305695E+03  0.12509000000E+03 0.  0.
         25    1    3    3    0    0 -0.63236940080E+02  0.38758899106E+02 -0.15536245440E+03  0.21280545855E+03  0.12509000000E+03 0.  0.
         25    1    3    3    0    0 -0.44246403931E+02 -0.39332560015E+02 -0.16750341730E+03  0.21727792673E+03  0.12509000000E+03 0.  0.
<mgrwt>
<rscale>  2 0.44906032E+03</rscale>
<asrwt>0</asrwt>
<pdfrwt beam="1">  1       21 0.12506819E-01 0.44906032E+03</pdfrwt>
<pdfrwt beam="2">  1       21 0.87173542E-01 0.44906032E+03</pdfrwt>
<totfact> 0.56731215E+04</totfact>
</mgrwt>
</event>
<event>
 6    0  0.1539497E-004  0.3949559E+03  0.7546771E-02  0.1045540E+00
         21   -1    0    0  502  501  0.00000000000E+00  0.00000000000E+00  0.35975459041E+03  0.35975459041E+03  0.00000000000E+00 0.  1.
         21   -1    0    0  501  502 -0.00000000000E+00 -0.00000000000E+00 -0.10840039888E+03  0.10840039888E+03  0.00000000000E+00 0.  1.
      99925    2    1    2    0    0  0.33787951319E+02  0.40387000794E+01  0.16058378384E+03  0.30989977843E+03  0.26285506327E+03 0.  0.
         25    1    3    3    0    0  0.28689937577E+02 -0.25522801795E+01  0.12595419593E+03  0.17983768855E+03  0.12509000000E+03 0.  0.
         25    1    3    3    0    0  0.50980137416E+01  0.65909802589E+01  0.34629587914E+02  0.13006208988E+03  0.12509000000E+03 0.  0.
         25    1    1    2    0    0 -0.33787951319E+02 -0.40387000794E+01  0.90770407678E+02  0.15825521086E+03  0.12509000000E+03 0.  0.
<mgrwt>
<rscale>  2 0.39495590E+03</rscale>
<asrwt>0</asrwt>
<pdfrwt beam="1">  1       21 0.52905086E-01 0.39495590E+03</pdfrwt>
<pdfrwt beam="2">  1       21 0.15941235E-01 0.39495590E+03</pdfrwt>
<totfact> 0.11224769E+05</totfact>
</mgrwt>
</event>
<event>
 6    0  0.1539497E-004  0.4118727E+03  0.7546771E-02  0.1039744E+00
         21   -1    0    0  502  501  0.00000000000E+00  0.00000000000E+00  0.50570354032E+02  0.50570354032E+02  0.00000000000E+00 0.  1.
         21   -1    0    0  501  502 -0.00000000000E+00 -0.00000000000E+00 -0.83862934799E+03  0.83862934799E+03  0.00000000000E+00 0.  1.
      99925    2    1    2    0    0 -0.54527180094E+02 -0.33706125948E+02 -0.54093392967E+03  0.60489771153E+03  0.26302549089E+03 0.  0.
         25    1    1    2    0    0  0.54527180094E+02  0.33706125948E+02 -0.24712506429E+03  0.28430199049E+03  0.12509000000E+03 0.  0.
         25    1    3    3    0    0 -0.44282650747E+02 -0.52565224629E+02 -0.25928664191E+03  0.29597487523E+03  0.12509000000E+03 0.  0.
         25    1    3    3    0    0 -0.10244529348E+02  0.18859098681E+02 -0.28164728776E+03  0.30892283630E+03  0.12509000000E+03 0.  0.
<mgrwt>
<rscale>  2 0.41187271E+03</rscale>
<asrwt>0</asrwt>
<pdfrwt beam="1">  1       21 0.74368169E-02 0.41187271E+03</pdfrwt>
<pdfrwt beam="2">  1       21 0.12332784E+00 0.41187271E+03</pdfrwt>
<totfact> 0.62187056E+04</totfact>
</mgrwt>
</event>
<event>
 6    0  0.1539497E-004  0.4078551E+03  0.7546771E-02  0.1041093E+00
         21   -1    0    0  502  501  0.00000000000E+00  0.00000000000E+00  0.35801588770E+03  0.35801588770E+03  0.00000000000E+00 0.  1.
         21   -1    0    0  501  502 -0.00000000000E+00 -0.00000000000E+00 -0.11615808046E+03  0.11615808046E+03  0.00000000000E+00 0.  1.
      99925    2    1    2    0    0  0.87748408330E+01  0.34793382768E+02  0.21410691055E+03  0.34111308855E+03  0.26311364981E+03 0.  0.
         25    1    1    2    0    0 -0.87748408330E+01 -0.34793382768E+02  0.27750896694E+02  0.13306087961E+03  0.12509000000E+03 0.  0.
         25    1    3    3    0    0 -0.36305248949E+01  0.52476160783E+02  0.85386950227E+02  0.16032893541E+03  0.12509000000E+03 0.  0.
         25    1    3    3    0    0  0.12405365728E+02 -0.17682778016E+02  0.12871996033E+03  0.18078415313E+03  0.12509000000E+03 0.  0.
<mgrwt>
<rscale>  2 0.40785506E+03</rscale>
<asrwt>0</asrwt>
<pdfrwt beam="1">  1       21 0.52649395E-01 0.40785506E+03</pdfrwt>
<pdfrwt beam="2">  1       21 0.17082071E-01 0.40785506E+03</pdfrwt>
<totfact> 0.99433292E+04</totfact>
</mgrwt>
</event>
<event>
 6    0  0.1539497E-004  0.6713782E+03  0.7546771E-02  0.9767471E-01
         21   -1    0    0  502  501  0.00000000000E+00  0.00000000000E+00  0.18495884112E+03  0.18495884112E+03  0.00000000000E+00 0.  1.
         21   -1    0    0  501  502 -0.00000000000E+00 -0.00000000000E+00 -0.60925536067E+03  0.60925536067E+03  0.00000000000E+00 0.  1.
      99925    2    1    2    0    0 -0.16405050739E+03  0.17584743949E+03 -0.96487602143E+02  0.36884249917E+03  0.26248817283E+03 0.  0.
         25    1    3    3    0    0 -0.69153445448E+02  0.12420440789E+03 -0.35466649350E+02  0.19265078581E+03  0.12509000000E+03 0.  0.
         25    1    1    2    0    0  0.16405050739E+03 -0.17584743949E+03 -0.32780891741E+03  0.42537170261E+03  0.12509000000E+03 0.  0.
         25    1    3    3    0    0 -0.94897061944E+02  0.51643031600E+02 -0.61020952793E+02  0.17619171336E+03  0.12509000000E+03 0.  0.
<mgrwt>
<rscale>  2 0.67137818E+03</rscale>
<asrwt>0</asrwt>
<pdfrwt beam="1">  1       21 0.27199830E-01 0.67137818E+03</pdfrwt>
<pdfrwt beam="2">  1       21 0.89596376E-01 0.67137818E+03</pdfrwt>
<totfact> 0.11617782E+04</totfact>
</mgrwt>
</event>
<event>
 6    0  0.1539497E-004  0.3975742E+03  0.7546771E-02  0.1044623E+00
         21   -1    0    0  502  501  0.00000000000E+00  0.00000000000E+00  0.19521612779E+03  0.19521612779E+03  0.00000000000E+00 0.  1.
         21   -1    0    0  501  502 -0.00000000000E+00 -0.00000000000E+00 -0.20242335717E+03  0.20242335717E+03  0.00000000000E+00 0.  1.
      99925    2    1    2    0    0  0.15848720430E+02  0.31673964983E+02  0.14553471632E+02  0.26582348364E+03  0.26305113366E+03 0.  0.
         25    1    1    2    0    0 -0.15848720430E+02 -0.31673964983E+02 -0.21760701006E+02  0.13181600132E+03  0.12509000000E+03 0.  0.
         25    1    3    3    0    0  0.39976650335E+02  0.40803148558E+02  0.12527529167E+02  0.13808503391E+03  0.12509000000E+03 0.  0.
         25    1    3    3    0    0 -0.24127929905E+02 -0.91291835749E+01  0.20259424653E+01  0.12773844972E+03  0.12509000000E+03 0.  0.
<mgrwt>
<rscale>  2 0.39757416E+03</rscale>
<asrwt>0</asrwt>
<pdfrwt beam="1">  1       21 0.28708254E-01 0.39757416E+03</pdfrwt>
<pdfrwt beam="2">  1       21 0.29768141E-01 0.39757416E+03</pdfrwt>
<totfact> 0.11874402E+05</totfact>
</mgrwt>
</event>
<event>
 6    0  0.1539497E-004  0.3946857E+03  0.7546771E-02  0.1045636E+00
         21   -1    0    0  502  501  0.00000000000E+00  0.00000000000E+00  0.81001577629E+02  0.81001577629E+02  0.00000000000E+00 0. -1.
         21   -1    0    0  501  502 -0.00000000000E+00 -0.00000000000E+00 -0.48078330655E+03  0.48078330655E+03  0.00000000000E+00 0. -1.
      99925    2    1    2    0    0  0.37704809987E+01 -0.13764586216E+01 -0.31626460597E+03  0.41132316449E+03  0.26295880569E+03 0.  0.
         25    1    1    2    0    0 -0.37704809987E+01  0.13764586216E+01 -0.83517122951E+02  0.15046171969E+03  0.12509000000E+03 0.  0.
         25    1    3    3    0    0  0.34477488414E+02  0.21909025157E+01 -0.12136866615E+03  0.17768330953E+03  0.12509000000E+03 0.  0.
         25    1    3    3    0    0 -0.30707007415E+02 -0.35673611373E+01 -0.19489593982E+03  0.23363985496E+03  0.12509000000E+03 0.  0.
<mgrwt>
<rscale>  2 0.39468573E+03</rscale>
<asrwt>0</asrwt>
<pdfrwt beam="1">  1       21 0.11911997E-01 0.39468573E+03</pdfrwt>
<pdfrwt beam="2">  1       21 0.70703426E-01 0.39468573E+03</pdfrwt>
<totfact> 0.10152324E+05</totfact>
</mgrwt>
</event>
<event>
 6    0  0.1539497E-004  0.4670986E+03  0.7546771E-02  0.1022742E+00
         21   -1    0    0  502  501  0.00000000000E+00  0.00000000000E+00  0.89105681200E+02  0.89105681200E+02  0.00000000000E+00 0.  1.
         21   -1    0    0  501  502 -0.00000000000E+00 -0.00000000000E+00 -0.61214150094E+03  0.61214150094E+03  0.00000000000E+00 0.  1.
      99925    2    1    2    0    0 -0.97458355474E+02 -0.74196254115E+02 -0.29489138546E+03  0.41367005132E+03  0.26298054484E+03 0.  0.
         25    1    3    3    0    0 -0.33132429568E+02 -0.82936126050E+01 -0.96153906307E+02  0.16142993433E+03  0.12509000000E+03 0.  0.
         25    1    1    2    0    0  0.97458355474E+02  0.74196254115E+02 -0.22814443429E+03  0.28757713082E+03  0.12509000000E+03 0.  0.
         25    1    3    3    0    0 -0.64325925907E+02 -0.65902641510E+02 -0.19873747915E+03  0.25224011699E+03  0.12509000000E+03 0.  0.
<mgrwt>
<rscale>  2 0.46709864E+03</rscale>
<asrwt>0</asrwt>
<pdfrwt beam="1">  1       21 0.13103776E-01 0.46709864E+03</pdfrwt>
<pdfrwt beam="2">  1       21 0.90020814E-01 0.46709864E+03</pdfrwt>
<totfact> 0.48089293E+04</totfact>
</mgrwt>
</event>
<event>
 6    0  0.1539497E-004  0.4945101E+03  0.7546771E-02  0.1015222E+00
         21   -1    0    0  502  501  0.00000000000E+00  0.00000000000E+00  0.60870036979E+02  0.60870036979E+02  0.00000000000E+00 0. -1.
         21   -1    0    0  501  502 -0.00000000000E+00 -0.00000000000E+00 -0.10043540649E+04  0.10043540649E+04  0.00000000000E+00 0. -1.
      99925    2    1    2    0    0 -0.11834879450E+03  0.87340576916E+02 -0.58302328903E+03  0.65630569203E+03  0.26303268296E+03 0.  0.
         25    1    3    3    0    0 -0.53833193262E+02  0.21373681941E+02 -0.35028701642E+03  0.37643505277E+03  0.12509000000E+03 0.  0.
         25    1    3    3    0    0 -0.64515601236E+02  0.65966894975E+02 -0.23273627261E+03  0.27987063927E+03  0.12509000000E+03 0.  0.
         25    1    1    2    0    0  0.11834879450E+03 -0.87340576916E+02 -0.36046073893E+03  0.40891840989E+03  0.12509000000E+03 0.  0.
<mgrwt>
<rscale>  2 0.49451014E+03</rscale>
<asrwt>0</asrwt>
<pdfrwt beam="1">  1       21 0.89514768E-02 0.49451014E+03</pdfrwt>
<pdfrwt beam="2">  1       21 0.14769912E+00 0.49451014E+03</pdfrwt>
<totfact> 0.27286805E+04</totfact>
</mgrwt>
</event>
<event>
 6    0  0.1539497E-004  0.4350316E+03  0.7546771E-02  0.1032282E+00
         21   -1    0    0  502  501  0.00000000000E+00  0.00000000000E+00  0.11005944590E+03  0.11005944590E+03  0.00000000000E+00 0. -1.
         21   -1    0    0  501  502 -0.00000000000E+00 -0.00000000000E+00 -0.42988705803E+03  0.42988705803E+03  0.00000000000E+00 0. -1.
      99925    2    1    2    0    0  0.83974247080E+02  0.40249102139E+02 -0.20114404644E+03  0.34397466600E+03  0.26303607934E+03 0.  0.
         25    1    3    3    0    0  0.19423307672E+02 -0.15540374767E+02 -0.96023107656E+02  0.15964558695E+03  0.12509000000E+03 0.  0.
         25    1    3    3    0    0  0.64550939408E+02  0.55789476906E+02 -0.10512093878E+03  0.18432907905E+03  0.12509000000E+03 0.  0.
         25    1    1    2    0    0 -0.83974247080E+02 -0.40249102139E+02 -0.11868356569E+03  0.19597183793E+03  0.12509000000E+03 0.  0.
<mgrwt>
<rscale>  2 0.43503164E+03</rscale>
<asrwt>0</asrwt>
<pdfrwt beam="1">  1       21 0.16185213E-01 0.43503164E+03</pdfrwt>
<pdfrwt beam="2">  1       21 0.63218684E-01 0.43503164E+03</pdfrwt>
<totfact> 0.73476631E+04</totfact>
</mgrwt>
</event>
<event>
 6    0  0.1539497E-004  0.3927788E+03  0.7546771E-02  0.1046309E+00
         21   -1    0    0  502  501  0.00000000000E+00  0.00000000000E+00  0.11121320515E+04  0.11121320515E+04  0.00000000000E+00 0.  1.
         21   -1    0    0  501  502 -0.00000000000E+00 -0.00000000000E+00 -0.34680055183E+02  0.34680055183E+02  0.00000000000E+00 0.  1.
      99925    2    1    2    0    0  0.89501381155E+01 -0.16060238367E+02  0.66471225331E+03  0.71514135277E+03  0.26314775033E+03 0.  0.
         25    1    3    3    0    0  0.27550877154E+02 -0.13764203272E+02  0.42512701173E+03  0.44421727604E+03  0.12509000000E+03 0.  0.
         25    1    3    3    0    0 -0.18600739039E+02 -0.22960350946E+01  0.23958524158E+03  0.27092407673E+03  0.12509000000E+03 0.  0.
         25    1    1    2    0    0 -0.89501381155E+01  0.16060238367E+02  0.41273974296E+03  0.43167075387E+03  0.12509000000E+03 0.  0.
<mgrwt>
<rscale>  2 0.39277882E+03</rscale>
<asrwt>0</asrwt>
<pdfrwt beam="1">  1       21 0.16354881E+00 0.39277882E+03</pdfrwt>
<pdfrwt beam="2">  1       21 0.51000089E-02 0.39277882E+03</pdfrwt>
<totfact> 0.56850317E+04</totfact>
</mgrwt>
</event>
<event>
 6    0  0.1539497E-004  0.4722635E+03  0.7546771E-02  0.1021283E+00
         21   -1    0    0  502  501  0.00000000000E+00  0.00000000000E+00  0.13076374700E+03  0.13076374700E+03  0.00000000000E+00 0. -1.
         21   -1    0    0  501  502 -0.00000000000E+00 -0.00000000000E+00 -0.42640415921E+03  0.42640415921E+03  0.00000000000E+00 0. -1.
      99925    2    1    2    0    0  0.12296595706E+03 -0.35662408896E+02 -0.16898543500E+03  0.33789313485E+03  0.26310313440E+03 0.  0.
         25    1    1    2    0    0 -0.12296595706E+03  0.35662408896E+02 -0.12665497721E+03  0.21927477136E+03  0.12509000000E+03 0.  0.
         25    1    3    3    0    0  0.61554160251E+02 -0.41082034464E+02 -0.12489492399E+03  0.19163219546E+03  0.12509000000E+03 0.  0.
         25    1    3    3    0    0  0.61411796807E+02  0.54196255675E+01 -0.44090511011E+02  0.14626093938E+03  0.12509000000E+03 0.  0.
<mgrwt>
<rscale>  2 0.47226351E+03</rscale>
<asrwt>0</asrwt>
<pdfrwt beam="1">  1       21 0.19229963E-01 0.47226351E+03</pdfrwt>
<pdfrwt beam="2">  1       21 0.62706494E-01 0.47226351E+03</pdfrwt>
<totfact> 0.53677770E+04</totfact>
</mgrwt>
</event>
<event>
 6    0  0.1539497E-004  0.4840323E+03  0.7546771E-02  0.1018033E+00
         21   -1    0    0  502  501  0.00000000000E+00  0.00000000000E+00  0.57908749998E+03  0.57908749998E+03  0.00000000000E+00 0. -1.
         21   -1    0    0  501  502 -0.00000000000E+00 -0.00000000000E+00 -0.10114501833E+03  0.10114501833E+03  0.00000000000E+00 0. -1.
      99925    2    1    2    0    0  0.13814999104E+02  0.89574335865E+02  0.14563556959E+03  0.31377678054E+03  0.26273890658E+03 0.  0.
         25    1    3    3    0    0  0.30195603041E+02  0.15058415335E+02  0.50366798847E+02  0.13900666474E+03  0.12509000000E+03 0.  0.
         25    1    1    2    0    0 -0.13814999104E+02 -0.89574335865E+02  0.33230691206E+03  0.36645573777E+03  0.12509000000E+03 0.  0.
         25    1    3    3    0    0 -0.16380603936E+02  0.74515920530E+02  0.95268770743E+02  0.17477011580E+03  0.12509000000E+03 0.  0.
<mgrwt>
<rscale>  2 0.48403230E+03</rscale>
<asrwt>0</asrwt>
<pdfrwt beam="1">  1       21 0.85159925E-01 0.48403230E+03</pdfrwt>
<pdfrwt beam="2">  1       21 0.14874268E-01 0.48403230E+03</pdfrwt>
<totfact> 0.43217619E+04</totfact>
</mgrwt>
</event>
<event>
 6    0  0.1636528E-004  0.4083542E+03  0.7546771E-02  0.1040925E+00
         21   -1    0    0  502  501  0.00000000000E+00  0.00000000000E+00  0.17387285107E+03  0.17387285107E+03  0.00000000000E+00 0.  1.
         21   -1    0    0  501  502 -0.00000000000E+00 -0.00000000000E+00 -0.23976301977E+03  0.23976301977E+03  0.00000000000E+00 0.  1.
      99925    2    1    2    0    0 -0.40725246097E+02 -0.24398724005E+02 -0.80247178945E+02  0.27907185171E+03  0.26303544492E+03 0.  0.
         25    1    1    2    0    0  0.40725246097E+02  0.24398724005E+02  0.14357010242E+02  0.13456401914E+03  0.12509000000E+03 0.  0.
         25    1    3    3    0    0 -0.14997327201E+02 -0.20558386545E+01 -0.80316795734E+02  0.14942369984E+03  0.12509000000E+03 0.  0.
         25    1    3    3    0    0 -0.25727918895E+02 -0.22342885351E+02  0.69616789538E-01  0.12964815187E+03  0.12509000000E+03 0.  0.
<mgrwt>
<rscale>  2 0.40835416E+03</rscale>
<asrwt>0</asrwt>
<pdfrwt beam="1">  1       21 0.25569537E-01 0.40835416E+03</pdfrwt>
<pdfrwt beam="2">  1       21 0.35259268E-01 0.40835416E+03</pdfrwt>
<totfact> 0.10595279E+05</totfact>
</mgrwt>
</event>
<event>
 6    0  0.1539497E-004  0.4051806E+03  0.7546771E-02  0.1042000E+00
         21   -1    0    0  502  501  0.00000000000E+00  0.00000000000E+00  0.12362114485E+03  0.12362114485E+03  0.00000000000E+00 0. -1.
         21   -1    0    0  501  502 -0.00000000000E+00 -0.00000000000E+00 -0.33200488329E+03  0.33200488329E+03  0.00000000000E+00 0. -1.
      99925    2    1    2    0    0 -0.19022844326E+02 -0.28278444609E+02 -0.18604228723E+03  0.32406544294E+03  0.26314471235E+03 0.  0.
         25    1    3    3    0    0 -0.45644078394E+02 -0.16900839876E+02 -0.11818112970E+03  0.17883877599E+03  0.12509000000E+03 0.  0.
         25    1    3    3    0    0  0.26621234068E+02 -0.11377604733E+02 -0.67861157530E+02  0.14522666695E+03  0.12509000000E+03 0.  0.
         25    1    1    2    0    0  0.19022844326E+02  0.28278444609E+02 -0.22341451205E+02  0.13156058520E+03  0.12509000000E+03 0.  0.
<mgrwt>
<rscale>  2 0.40518057E+03</rscale>
<asrwt>0</asrwt>
<pdfrwt beam="1">  1       21 0.18179580E-01 0.40518057E+03</pdfrwt>
<pdfrwt beam="2">  1       21 0.48824247E-01 0.40518057E+03</pdfrwt>
<totfact> 0.10392024E+05</totfact>
</mgrwt>
</event>
<event>
 6    0  0.1539497E-004  0.7151774E+03  0.7546771E-02  0.9691623E-01
         21   -1    0    0  502  501  0.00000000000E+00  0.00000000000E+00  0.13731729709E+04  0.13731729709E+04  0.00000000000E+00 0. -1.
         21   -1    0    0  501  502 -0.00000000000E+00 -0.00000000000E+00 -0.93119875387E+02  0.93119875387E+02  0.00000000000E+00 0. -1.
      99925    2    1    2    0    0  0.58963509213E+02 -0.25660401328E+03  0.43567499299E+03  0.57301561990E+03  0.26308151985E+03 0.  0.
         25    1    3    3    0    0  0.56444860348E+02 -0.99560398666E+02  0.17108997818E+03  0.24086839555E+03  0.12509000000E+03 0.  0.
         25    1    3    3    0    0  0.25186488650E+01 -0.15704361462E+03  0.26458501481E+03  0.33214722435E+03  0.12509000000E+03 0.  0.
         25    1    1    2    0    0 -0.58963509213E+02  0.25660401328E+03  0.84437810253E+03  0.89327722638E+03  0.12509000000E+03 0.  0.
<mgrwt>
<rscale>  2 0.71517745E+03</rscale>
<asrwt>0</asrwt>
<pdfrwt beam="1">  1       21 0.20193719E+00 0.71517745E+03</pdfrwt>
<pdfrwt beam="2">  1       21 0.13694100E-01 0.71517745E+03</pdfrwt>
<totfact> 0.47978995E+03</totfact>
</mgrwt>
</event>
<event>
 6    0  0.1539497E-004  0.4069122E+03  0.7546771E-02  0.1041412E+00
         21   -1    0    0  502  501  0.00000000000E+00  0.00000000000E+00  0.93148383553E+02  0.93148383553E+02  0.00000000000E+00 0. -1.
         21   -1    0    0  501  502 -0.00000000000E+00 -0.00000000000E+00 -0.44439178474E+03  0.44439178474E+03  0.00000000000E+00 0. -1.
      99925    2    1    2    0    0 -0.36054160954E+02 -0.20373930723E+02 -0.28518465391E+03  0.39014184481E+03  0.26299310384E+03 0.  0.
         25    1    3    3    0    0 -0.33609407247E+01 -0.22855333108E+02 -0.89295035122E+02  0.15541806063E+03  0.12509000000E+03 0.  0.
         25    1    3    3    0    0 -0.32693220230E+02  0.24814023854E+01 -0.19588961879E+03  0.23472378417E+03  0.12509000000E+03 0.  0.
         25    1    1    2    0    0  0.36054160954E+02  0.20373930723E+02 -0.66058747277E+02  0.14739832349E+03  0.12509000000E+03 0.  0.
<mgrwt>
<rscale>  2 0.40691216E+03</rscale>
<asrwt>0</asrwt>
<pdfrwt beam="1">  1       21 0.13698292E-01 0.40691216E+03</pdfrwt>
<pdfrwt beam="2">  1       21 0.65351732E-01 0.40691216E+03</pdfrwt>
<totfact> 0.93526890E+04</totfact>
</mgrwt>
</event>
<event>
 6    0  0.1539497E-004  0.4048325E+03  0.7546771E-02  0.1042119E+00
         21   -1    0    0  502  501  0.00000000000E+00  0.00000000000E+00  0.52785397025E+02  0.52785397025E+02  0.00000000000E+00 0. -1.
         21   -1    0    0  501  502 -0.00000000000E+00 -0.00000000000E+00 -0.77620587150E+03  0.77620587150E+03  0.00000000000E+00 0. -1.
      99925    2    1    2    0    0 -0.40874179027E+01 -0.30567617201E+02 -0.57095084385E+03  0.62937768540E+03  0.26302151732E+03 0.  0.
         25    1    3    3    0    0  0.92416346649E+00 -0.56032228849E+02 -0.29515583446E+03  0.32543039112E+03  0.12509000000E+03 0.  0.
         25    1    3    3    0    0 -0.50115813692E+01  0.25464611648E+02 -0.27579500939E+03  0.30394729428E+03  0.12509000000E+03 0.  0.
         25    1    1    2    0    0  0.40874179027E+01  0.30567617201E+02 -0.15246963063E+03  0.19961358313E+03  0.12509000000E+03 0.  0.
<mgrwt>
<rscale>  2 0.40483248E+03</rscale>
<asrwt>0</asrwt>
<pdfrwt beam="1">  1       21 0.77625576E-02 0.40483248E+03</pdfrwt>
<pdfrwt beam="2">  1       21 0.11414793E+00 0.40483248E+03</pdfrwt>
<totfact> 0.70207821E+04</totfact>
</mgrwt>
</event>
<event>
 6    0  0.1539497E-004  0.4225112E+03  0.7546771E-02  0.1036252E+00
         21   -1    0    0  502  501  0.00000000000E+00  0.00000000000E+00  0.31803229832E+02  0.31803229832E+02  0.00000000000E+00 0.  1.
         21   -1    0    0  501  502 -0.00000000000E+00 -0.00000000000E+00 -0.14032829328E+04  0.14032829328E+04  0.00000000000E+00 0.  1.
      99925    2    1    2    0    0  0.34386531554E+01  0.44509536068E+02 -0.66996424114E+03  0.72110830974E+03  0.26296803386E+03 0.  0.
         25    1    3    3    0    0 -0.10796897303E+02 -0.14496857526E+02 -0.35471303050E+03  0.37655753077E+03  0.12509000000E+03 0.  0.
         25    1    3    3    0    0  0.14235550459E+02  0.59006393595E+02 -0.31525121064E+03  0.34455077897E+03  0.12509000000E+03 0.  0.
         25    1    1    2    0    0 -0.34386531554E+01 -0.44509536068E+02 -0.70151546182E+03  0.71397785289E+03  0.12509000000E+03 0.  0.
<mgrwt>
<rscale>  2 0.42251121E+03</rscale>
<asrwt>0</asrwt>
<pdfrwt beam="1">  1       21 0.46769451E-02 0.42251121E+03</pdfrwt>
<pdfrwt beam="2">  1       21 0.20636516E+00 0.42251121E+03</pdfrwt>
<totfact> 0.32986220E+04</totfact>
</mgrwt>
</event>
<event>
 6    0  0.1539497E-004  0.4441338E+03  0.7546771E-02  0.1029486E+00
         21   -1    0    0  502  501  0.00000000000E+00  0.00000000000E+00  0.26373211372E+03  0.26373211372E+03  0.00000000000E+00 0. -1.
         21   -1    0    0  501  502 -0.00000000000E+00 -0.00000000000E+00 -0.18698412540E+03  0.18698412540E+03  0.00000000000E+00 0. -1.
      99925    2    1    2    0    0  0.79696339491E+02  0.51847137175E+02  0.91141203843E+01  0.27965636552E+03  0.26284022414E+03 0.  0.
         25    1    1    2    0    0 -0.79696339491E+02 -0.51847137175E+02  0.67633867931E+02  0.17105987359E+03  0.12509000000E+03 0.  0.
         25    1    3    3    0    0  0.81575882108E+02  0.22800350245E+02  0.58701811499E+01  0.15118348997E+03  0.12509000000E+03 0.  0.
         25    1    3    3    0    0 -0.18795426170E+01  0.29046786930E+02  0.32439392345E+01  0.12847287555E+03  0.12509000000E+03 0.  0.
<mgrwt>
<rscale>  2 0.44413385E+03</rscale>
<asrwt>0</asrwt>
<pdfrwt beam="1">  1       21 0.38784135E-01 0.44413385E+03</pdfrwt>
<pdfrwt beam="2">  1       21 0.27497665E-01 0.44413385E+03</pdfrwt>
<totfact> 0.75167557E+04</totfact>
</mgrwt>
</event>
<event>
 6    0  0.1539497E-004  0.4315287E+03  0.7546771E-02  0.1033378E+00
         21   -1    0    0  502  501  0.00000000000E+00  0.00000000000E+00  0.67880636588E+02  0.67880636588E+02  0.00000000000E+00 0.  1.
         21   -1    0    0  501  502 -0.00000000000E+00 -0.00000000000E+00 -0.68582522905E+03  0.68582522905E+03  0.00000000000E+00 0.  1.
      99925    2    1    2    0    0  0.15661068160E+02 -0.87738182161E+02 -0.40682248439E+03  0.49262482404E+03  0.26311865345E+03 0.  0.
         25    1    1    2    0    0 -0.15661068160E+02  0.87738182161E+02 -0.21112210807E+03  0.26108104160E+03  0.12509000000E+03 0.  0.
         25    1    3    3    0    0  0.25422435256E+02 -0.11448950533E+02 -0.15506000983E+03  0.20116782405E+03  0.12509000000E+03 0.  0.
         25    1    3    3    0    0 -0.97613670958E+01 -0.76289231628E+02 -0.25176247456E+03  0.29145699999E+03  0.12509000000E+03 0.  0.
<mgrwt>
<rscale>  2 0.43152869E+03</rscale>
<asrwt>0</asrwt>
<pdfrwt beam="1">  1       21 0.99824469E-02 0.43152869E+03</pdfrwt>
<pdfrwt beam="2">  1       21 0.10085665E+00 0.43152869E+03</pdfrwt>
<totfact> 0.60485687E+04</totfact>
</mgrwt>
</event>
<event>
 6    0  0.1539497E-004  0.4614206E+03  0.7546771E-02  0.1024370E+00
         21   -1    0    0  502  501  0.00000000000E+00  0.00000000000E+00  0.50356125651E+02  0.50356125651E+02  0.00000000000E+00 0.  1.
         21   -1    0    0  501  502 -0.00000000000E+00 -0.00000000000E+00 -0.10570164626E+04  0.10570164626E+04  0.00000000000E+00 0.  1.
      99925    2    1    2    0    0 -0.76189496807E+02 -0.73182583471E+02 -0.76067510356E+03  0.81187847140E+03  0.26336193574E+03 0.  0.
         25    1    3    3    0    0 -0.60769728736E+01 -0.65015550884E+01 -0.35200035556E+03  0.37367226045E+03  0.12509000000E+03 0.  0.
         25    1    1    2    0    0  0.76189496807E+02  0.73182583471E+02 -0.24598523337E+03  0.29549411683E+03  0.12509000000E+03 0.  0.
         25    1    3    3    0    0 -0.70112523934E+02 -0.66681028383E+02 -0.40867474801E+03  0.43820621095E+03  0.12509000000E+03 0.  0.
<mgrwt>
<rscale>  2 0.46142065E+03</rscale>
<asrwt>0</asrwt>
<pdfrwt beam="1">  1       21 0.74053128E-02 0.46142065E+03</pdfrwt>
<pdfrwt beam="2">  1       21 0.15544359E+00 0.46142065E+03</pdfrwt>
<totfact> 0.33527526E+04</totfact>
</mgrwt>
</event>
<event>
 6    0  0.1539497E-004  0.4430664E+03  0.7546771E-02  0.1029810E+00
         21   -1    0    0  502  501  0.00000000000E+00  0.00000000000E+00  0.44473587906E+02  0.44473587906E+02  0.00000000000E+00 0. -1.
         21   -1    0    0  501  502 -0.00000000000E+00 -0.00000000000E+00 -0.11035081744E+04  0.11035081744E+04  0.00000000000E+00 0. -1.
      99925    2    1    2    0    0  0.84196387124E+02 -0.38755485280E+02 -0.56594935283E+03  0.63090190870E+03  0.26295917781E+03 0.  0.
         25    1    1    2    0    0 -0.84196387124E+02  0.38755485280E+02 -0.49308523367E+03  0.51707985361E+03  0.12509000000E+03 0.  0.
         25    1    3    3    0    0  0.37647865670E+01 -0.11038608836E+02 -0.22045912391E+03  0.25374348843E+03  0.12509000000E+03 0.  0.
         25    1    3    3    0    0  0.80431600558E+02 -0.27716876444E+02 -0.34549022892E+03  0.37715842028E+03  0.12509000000E+03 0.  0.
<mgrwt>
<rscale>  2 0.44306644E+03</rscale>
<asrwt>0</asrwt>
<pdfrwt beam="1">  1       21 0.65402335E-02 0.44306644E+03</pdfrwt>
<pdfrwt beam="2">  1       21 0.16228061E+00 0.44306644E+03</pdfrwt>
<totfact> 0.37190271E+04</totfact>
</mgrwt>
</event>
<event>
 6    0  0.1539497E-004  0.3903085E+03  0.7546771E-02  0.1047188E+00
         21   -1    0    0  502  501  0.00000000000E+00  0.00000000000E+00  0.27109642685E+03  0.27109642685E+03  0.00000000000E+00 0. -1.
         21   -1    0    0  501  502 -0.00000000000E+00 -0.00000000000E+00 -0.14048573148E+03  0.14048573148E+03  0.00000000000E+00 0. -1.
      99925    2    1    2    0    0 -0.50204047399E+01  0.17674153348E+02  0.82448992756E+02  0.27628752482E+03  0.26305774994E+03 0.  0.
         25    1    3    3    0    0 -0.39606183068E+02  0.27949010418E+01  0.57543713908E+02  0.14330125024E+03  0.12509000000E+03 0.  0.
         25    1    1    2    0    0  0.50204047399E+01 -0.17674153348E+02  0.48161702605E+02  0.13529463352E+03  0.12509000000E+03 0.  0.
         25    1    3    3    0    0  0.34585778328E+02  0.14879252307E+02  0.24905278848E+02  0.13298627458E+03  0.12509000000E+03 0.  0.
<mgrwt>
<rscale>  2 0.39030849E+03</rscale>
<asrwt>0</asrwt>
<pdfrwt beam="1">  1       21 0.39867122E-01 0.39030849E+03</pdfrwt>
<pdfrwt beam="2">  1       21 0.20659666E-01 0.39030849E+03</pdfrwt>
<totfact> 0.12481739E+05</totfact>
</mgrwt>
</event>
<event>
 6    0  0.1539497E-004  0.4827283E+03  0.7546771E-02  0.1018388E+00
         21   -1    0    0  502  501  0.00000000000E+00  0.00000000000E+00  0.31453867927E+03  0.31453867927E+03  0.00000000000E+00 0. -1.
         21   -1    0    0  501  502 -0.00000000000E+00 -0.00000000000E+00 -0.18521299910E+03  0.18521299910E+03  0.00000000000E+00 0. -1.
      99925    2    1    2    0    0 -0.12994195727E+03 -0.43551239412E+02  0.67370161334E+02  0.30413057232E+03  0.26301148961E+03 0.  0.
         25    1    1    2    0    0  0.12994195727E+03  0.43551239412E+02  0.61955518838E+02  0.19562110604E+03  0.12509000000E+03 0.  0.
         25    1    3    3    0    0 -0.36714107805E+02 -0.28128599782E+02  0.62499874767E+02  0.14728505112E+03  0.12509000000E+03 0.  0.
         25    1    3    3    0    0 -0.93227849468E+02 -0.15422639630E+02  0.48702865663E+01  0.15684552120E+03  0.12509000000E+03 0.  0.
<mgrwt>
<rscale>  2 0.48272830E+03</rscale>
<asrwt>0</asrwt>
<pdfrwt beam="1">  1       21 0.46255688E-01 0.48272830E+03</pdfrwt>
<pdfrwt beam="2">  1       21 0.27237206E-01 0.48272830E+03</pdfrwt>
<totfact> 0.52698460E+04</totfact>
</mgrwt>
</event>
<event>
 6    0  0.1539497E-004  0.4705936E+03  0.7546771E-02  0.1021753E+00
         21   -1    0    0  502  501  0.00000000000E+00  0.00000000000E+00  0.12670628782E+04  0.12670628782E+04  0.00000000000E+00 0. -1.
         21   -1    0    0  501  502 -0.00000000000E+00 -0.00000000000E+00 -0.43695205570E+02  0.43695205570E+02  0.00000000000E+00 0. -1.
      99925    2    1    2    0    0 -0.12019156259E+03 -0.41377621042E+02  0.74021247474E+03  0.79573908161E+03  0.26292215388E+03 0.  0.
         25    1    3    3    0    0 -0.33895657031E+02 -0.26624163539E+02  0.43157341772E+03  0.45139880885E+03  0.12509000000E+03 0.  0.
         25    1    1    2    0    0  0.12019156259E+03  0.41377621042E+02  0.48315519794E+03  0.51501900221E+03  0.12509000000E+03 0.  0.
         25    1    3    3    0    0 -0.86295905560E+02 -0.14753457503E+02  0.30863905701E+03  0.34434027275E+03  0.12509000000E+03 0.  0.
<mgrwt>
<rscale>  2 0.47059355E+03</rscale>
<asrwt>0</asrwt>
<pdfrwt beam="1">  1       21 0.18633275E+00 0.47059355E+03</pdfrwt>
<pdfrwt beam="2">  1       21 0.64257663E-02 0.47059355E+03</pdfrwt>
<totfact> 0.25559679E+04</totfact>
</mgrwt>
</event>
<event>
 6    0  0.1539497E-004  0.4790162E+03  0.7546771E-02  0.1019406E+00
         21   -1    0    0  502  501  0.00000000000E+00  0.00000000000E+00  0.38214828939E+03  0.38214828939E+03  0.00000000000E+00 0.  1.
         21   -1    0    0  501  502 -0.00000000000E+00 -0.00000000000E+00 -0.15010960401E+03  0.15010960401E+03  0.00000000000E+00 0.  1.
      99925    2    1    2    0    0 -0.16454634356E+02 -0.11819506065E+03  0.21191632873E+03  0.35820834675E+03  0.26299023165E+03 0.  0.
         25    1    3    3    0    0 -0.24827536537E+02 -0.19584926133E+02  0.10247753705E+03  0.16476992930E+03  0.12509000000E+03 0.  0.
         25    1    1    2    0    0  0.16454634356E+02  0.11819506065E+03  0.20122356654E+02  0.17404954666E+03  0.12509000000E+03 0.  0.
         25    1    3    3    0    0  0.83729021808E+01 -0.98610134520E+02  0.10943879168E+03  0.19343841745E+03  0.12509000000E+03 0.  0.
<mgrwt>
<rscale>  2 0.47901619E+03</rscale>
<asrwt>0</asrwt>
<pdfrwt beam="1">  1       21 0.56198278E-01 0.47901619E+03</pdfrwt>
<pdfrwt beam="2">  1       21 0.22074942E-01 0.47901619E+03</pdfrwt>
<totfact> 0.52350106E+04</totfact>
</mgrwt>
</event>
<event>
 6    0  0.1539497E-004  0.4679525E+03  0.7546771E-02  0.1022500E+00
         21   -1    0    0  502  501  0.00000000000E+00  0.00000000000E+00  0.16895602545E+03  0.16895602545E+03  0.00000000000E+00 0.  1.
         21   -1    0    0  501  502 -0.00000000000E+00 -0.00000000000E+00 -0.32401848404E+03  0.32401848404E+03  0.00000000000E+00 0.  1.
      99925    2    1    2    0    0 -0.11382798366E+02  0.11358087830E+03 -0.14989085094E+03  0.32355066925E+03  0.26303532911E+03 0.  0.
         25    1    3    3    0    0 -0.44657326142E+02  0.53406405504E+02 -0.62711206645E+02  0.15629051304E+03  0.12509000000E+03 0.  0.
         25    1    1    2    0    0  0.11382798366E+02 -0.11358087830E+03 -0.51716076452E+01  0.16942384024E+03  0.12509000000E+03 0.  0.
         25    1    3    3    0    0  0.33274527776E+02  0.60174472799E+02 -0.87179644297E+02  0.16726015621E+03  0.12509000000E+03 0.  0.
<mgrwt>
<rscale>  2 0.46795246E+03</rscale>
<asrwt>0</asrwt>
<pdfrwt beam="1">  1       21 0.24846475E-01 0.46795246E+03</pdfrwt>
<pdfrwt beam="2">  1       21 0.47649776E-01 0.46795246E+03</pdfrwt>
<totfact> 0.59418590E+04</totfact>
</mgrwt>
</event>
<event>
 6    0  0.1539497E-004  0.4409066E+03  0.7546771E-02  0.1030469E+00
         21   -1    0    0  502  501  0.00000000000E+00  0.00000000000E+00  0.45211956135E+03  0.45211956135E+03  0.00000000000E+00 0.  1.
         21   -1    0    0  501  502 -0.00000000000E+00 -0.00000000000E+00 -0.10749293130E+03  0.10749293130E+03  0.00000000000E+00 0.  1.
      99925    2    1    2    0    0 -0.26218856463E+02  0.83231469571E+02  0.28002115400E+03  0.39397348276E+03  0.26303678920E+03 0.  0.
         25    1    3    3    0    0 -0.46936197215E+02  0.54374818958E+02  0.17526178192E+03  0.22698860731E+03  0.12509000000E+03 0.  0.
         25    1    1    2    0    0  0.26218856463E+02 -0.83231469571E+02  0.64605476055E+02  0.16563900989E+03  0.12509000000E+03 0.  0.
         25    1    3    3    0    0  0.20717340752E+02  0.28856650613E+02  0.10475937208E+03  0.16698487546E+03  0.12509000000E+03 0.  0.
<mgrwt>
<rscale>  2 0.44090660E+03</rscale>
<asrwt>0</asrwt>
<pdfrwt beam="1">  1       21 0.66488170E-01 0.44090660E+03</pdfrwt>
<pdfrwt beam="2">  1       21 0.15807784E-01 0.44090660E+03</pdfrwt>
<totfact> 0.68565376E+04</totfact>
</mgrwt>
</event>
<event>
 6    0  0.1539497E-004  0.4526253E+03  0.7546771E-02  0.1026942E+00
         21   -1    0    0  502  501  0.00000000000E+00  0.00000000000E+00  0.28908137897E+03  0.28908137897E+03  0.00000000000E+00 0. -1.
         21   -1    0    0  501  502 -0.00000000000E+00 -0.00000000000E+00 -0.17717298693E+03  0.17717298693E+03  0.00000000000E+00 0. -1.
      99925    2    1    2    0    0 -0.65633348615E+02  0.70324270301E+02  0.12756179600E+03  0.30768016687E+03  0.26294834825E+03 0.  0.
         25    1    3    3    0    0 -0.61186811564E+02  0.37162751909E+02  0.99642616479E+02  0.17521716570E+03  0.12509000000E+03 0.  0.
         25    1    1    2    0    0  0.65633348615E+02 -0.70324270301E+02 -0.15653403953E+02  0.15857419903E+03  0.12509000000E+03 0.  0.
         25    1    3    3    0    0 -0.44465370511E+01  0.33161518392E+02  0.27919179517E+02  0.13246300117E+03  0.12509000000E+03 0.  0.
<mgrwt>
<rscale>  2 0.45262528E+03</rscale>
<asrwt>0</asrwt>
<pdfrwt beam="1">  1       21 0.42511967E-01 0.45262528E+03</pdfrwt>
<pdfrwt beam="2">  1       21 0.26054851E-01 0.45262528E+03</pdfrwt>
<totfact> 0.69006166E+04</totfact>
</mgrwt>
</event>
<event>
 6    0  0.1539497E-004  0.4307145E+03  0.7546771E-02  0.1033635E+00
         21   -1    0    0  502  501  0.00000000000E+00  0.00000000000E+00  0.19162334557E+03  0.19162334557E+03  0.00000000000E+00 0. -1.
         21   -1    0    0  501  502 -0.00000000000E+00 -0.00000000000E+00 -0.24203074680E+03  0.24203074680E+03  0.00000000000E+00 0. -1.
      99925    2    1    2    0    0 -0.67481698149E+02 -0.11327604601E+02 -0.89079379387E+02  0.28592080497E+03  0.26293245648E+03 0.  0.
         25    1    1    2    0    0  0.67481698149E+02  0.11327604601E+02  0.38671978153E+02  0.14773328740E+03  0.12509000000E+03 0.  0.
         25    1    3    3    0    0 -0.55673023915E+02 -0.37968677154E+02 -0.33564356974E+02  0.14599719242E+03  0.12509000000E+03 0.  0.
         25    1    3    3    0    0 -0.11808674233E+02  0.26641072553E+02 -0.55515022414E+02  0.13992361254E+03  0.12509000000E+03 0.  0.
<mgrwt>
<rscale>  2 0.43071448E+03</rscale>
<asrwt>0</asrwt>
<pdfrwt beam="1">  1       21 0.28179904E-01 0.43071448E+03</pdfrwt>
<pdfrwt beam="2">  1       21 0.35592757E-01 0.43071448E+03</pdfrwt>
<totfact> 0.85551760E+04</totfact>
</mgrwt>
</event>
<event>
 6    0  0.1539497E-004  0.4977031E+03  0.7546771E-02  0.1014380E+00
         21   -1    0    0  502  501  0.00000000000E+00  0.00000000000E+00  0.69277249893E+02  0.69277249893E+02  0.00000000000E+00 0.  1.
         21   -1    0    0  501  502 -0.00000000000E+00 -0.00000000000E+00 -0.89390231664E+03  0.89390231664E+03  0.00000000000E+00 0.  1.
      99925    2    1    2    0    0 -0.11984883679E+03  0.54211167745E+02 -0.36296866955E+03  0.46711834898E+03  0.26296521156E+03 0.  0.
         25    1    1    2    0    0  0.11984883679E+03 -0.54211167745E+02 -0.46165639720E+03  0.49606121756E+03  0.12509000000E+03 0.  0.
         25    1    3    3    0    0 -0.39491629663E+02  0.24792107973E+02 -0.22782406096E+03  0.26405595673E+03  0.12509000000E+03 0.  0.
         25    1    3    3    0    0 -0.80357207126E+02  0.29419059772E+02 -0.13514460858E+03  0.20306239224E+03  0.12509000000E+03 0.  0.
<mgrwt>
<rscale>  2 0.49770310E+03</rscale>
<asrwt>0</asrwt>
<pdfrwt beam="1">  1       21 0.10187832E-01 0.49770310E+03</pdfrwt>
<pdfrwt beam="2">  1       21 0.13145621E+00 0.49770310E+03</pdfrwt>
<totfact> 0.29465527E+04</totfact>
</mgrwt>
</event>
<event>
 6    0  0.1539497E-004  0.4794023E+03  0.7546771E-02  0.1019300E+00
         21   -1    0    0  502  501  0.00000000000E+00  0.00000000000E+00  0.14340459960E+04  0.14340459960E+04  0.00000000000E+00 0.  1.
         21   -1    0    0  501  502 -0.00000000000E+00 -0.00000000000E+00 -0.40066102513E+02  0.40066102513E+02  0.00000000000E+00 0.  1.
      99925    2    1    2    0    0 -0.79788271613E+02 -0.84540362100E+02  0.64974568064E+03  0.71053805968E+03  0.26302403622E+03 0.  0.
         25    1    3    3    0    0 -0.35755360981E+02 -0.79161288955E+02  0.29965151194E+03  0.33613017153E+03  0.12509000000E+03 0.  0.
         25    1    1    2    0    0  0.79788271613E+02  0.84540362100E+02  0.74423421284E+03  0.76357403882E+03  0.12509000000E+03 0.  0.
         25    1    3    3    0    0 -0.44032910633E+02 -0.53790731452E+01  0.35009416870E+03  0.37440788815E+03  0.12509000000E+03 0.  0.
<mgrwt>
<rscale>  2 0.47940227E+03</rscale>
<asrwt>0</asrwt>
<pdfrwt beam="1">  1       21 0.21088908E+00 0.47940227E+03</pdfrwt>
<pdfrwt beam="2">  1       21 0.58920748E-02 0.47940227E+03</pdfrwt>
<totfact> 0.20292936E+04</totfact>
</mgrwt>
</event>
<event>
 6    0  0.1539497E-004  0.4037306E+03  0.7546771E-02  0.1042495E+00
         21   -1    0    0  502  501  0.00000000000E+00  0.00000000000E+00  0.77729309713E+03  0.77729309713E+03  0.00000000000E+00 0.  1.
         21   -1    0    0  501  502 -0.00000000000E+00 -0.00000000000E+00 -0.52425019649E+02  0.52425019649E+02  0.00000000000E+00 0.  1.
      99925    2    1    2    0    0  0.23436486565E+01  0.50052588247E+02  0.51238566434E+03  0.57810921735E+03  0.26298373311E+03 0.  0.
         25    1    3    3    0    0 -0.44305736107E+01 -0.15713060867E+02  0.24844645222E+03  0.27863897428E+03  0.12509000000E+03 0.  0.
         25    1    3    3    0    0  0.67742222672E+01  0.65765649114E+02  0.26393921212E+03  0.29947024308E+03  0.12509000000E+03 0.  0.
         25    1    1    2    0    0 -0.23436486565E+01 -0.50052588247E+02  0.21248241314E+03  0.25160889943E+03  0.12509000000E+03 0.  0.
<mgrwt>
<rscale>  2 0.40373063E+03</rscale>
<asrwt>0</asrwt>
<pdfrwt beam="1">  1       21 0.11430780E+00 0.40373063E+03</pdfrwt>
<pdfrwt beam="2">  1       21 0.77095622E-02 0.40373063E+03</pdfrwt>
<totfact> 0.70833821E+04</totfact>
</mgrwt>
</event>
<event>
 6    0  0.1539497E-004  0.3998709E+03  0.7546771E-02  0.1043824E+00
         21   -1    0    0  502  501  0.00000000000E+00  0.00000000000E+00  0.80665656514E+03  0.80665656514E+03  0.00000000000E+00 0. -1.
         21   -1    0    0  501  502 -0.00000000000E+00 -0.00000000000E+00 -0.49555397431E+02  0.49555397431E+02  0.00000000000E+00 0. -1.
      99925    2    1    2    0    0 -0.12616745954E+02  0.43814608462E+02  0.50928039426E+03  0.57489088970E+03  0.26278149265E+03 0.  0.
         25    1    1    2    0    0  0.12616745954E+02 -0.43814608462E+02  0.24782077345E+03  0.28132107288E+03  0.12509000000E+03 0.  0.
         25    1    3    3    0    0  0.86048802491E+01  0.39331660756E+02  0.18744259151E+03  0.22891757625E+03  0.12509000000E+03 0.  0.
         25    1    3    3    0    0 -0.21221626203E+02  0.44829477065E+01  0.32183780275E+03  0.34597331345E+03  0.12509000000E+03 0.  0.
<mgrwt>
<rscale>  2 0.39987091E+03</rscale>
<asrwt>0</asrwt>
<pdfrwt beam="1">  1       21 0.11862596E+00 0.39987091E+03</pdfrwt>
<pdfrwt beam="2">  1       21 0.72875589E-02 0.39987091E+03</pdfrwt>
<totfact> 0.71360106E+04</totfact>
</mgrwt>
</event>
<event>
 6    0  0.1539497E-004  0.3992359E+03  0.7546771E-02  0.1044045E+00
         21   -1    0    0  502  501  0.00000000000E+00  0.00000000000E+00  0.39959213784E+03  0.39959213784E+03  0.00000000000E+00 0. -1.
         21   -1    0    0  501  502 -0.00000000000E+00 -0.00000000000E+00 -0.99720010938E+02  0.99720010938E+02  0.00000000000E+00 0. -1.
      99925    2    1    2    0    0  0.43231268858E+02  0.56586489644E+01  0.19274144372E+03  0.32894356513E+03  0.26297080066E+03 0.  0.
         25    1    1    2    0    0 -0.43231268858E+02 -0.56586489644E+01  0.10713068319E+03  0.17036858365E+03  0.12509000000E+03 0.  0.
         25    1    3    3    0    0  0.30588769789E+02  0.13696690703E+02  0.50678389431E+02  0.13906501871E+03  0.12509000000E+03 0.  0.
         25    1    3    3    0    0  0.12642499069E+02 -0.80380417385E+01  0.14206305429E+03  0.18987854642E+03  0.12509000000E+03 0.  0.
<mgrwt>
<rscale>  2 0.39923593E+03</rscale>
<asrwt>0</asrwt>
<pdfrwt beam="1">  1       21 0.58763549E-01 0.39923593E+03</pdfrwt>
<pdfrwt beam="2">  1       21 0.14664708E-01 0.39923593E+03</pdfrwt>
<totfact> 0.10436191E+05</totfact>
</mgrwt>
</event>
<event>
 6    0  0.1539497E-004  0.4386973E+03  0.7546771E-02  0.1031147E+00
         21   -1    0    0  502  501  0.00000000000E+00  0.00000000000E+00  0.16253973843E+04  0.16253973843E+04  0.00000000000E+00 0.  1.
         21   -1    0    0  501  502 -0.00000000000E+00 -0.00000000000E+00 -0.29601267800E+02  0.29601267800E+02  0.00000000000E+00 0.  1.
      99925    2    1    2    0    0  0.81731516646E+02  0.50812162305E+02  0.10433949810E+04  0.10804932654E+04  0.26368673407E+03 0.  0.
         25    1    1    2    0    0 -0.81731516646E+02 -0.50812162305E+02  0.55240113553E+03  0.57450538664E+03  0.12509000000E+03 0.  0.
         25    1    3    3    0    0  0.30392591350E+02  0.43464805304E+02  0.66126955664E+03  0.67508357523E+03  0.12509000000E+03 0.  0.
         25    1    3    3    0    0  0.51338925295E+02  0.73473570010E+01  0.38212542431E+03  0.40540969020E+03  0.12509000000E+03 0.  0.
<mgrwt>
<rscale>  2 0.43869727E+03</rscale>
<asrwt>0</asrwt>
<pdfrwt beam="1">  1       21 0.23902897E+00 0.43869727E+03</pdfrwt>
<pdfrwt beam="2">  1       21 0.43531287E-02 0.43869727E+03</pdfrwt>
<totfact> 0.22990447E+04</totfact>
</mgrwt>
</event>
<event>
 6    0  0.1539497E-004  0.4132927E+03  0.7546771E-02  0.1039272E+00
         21   -1    0    0  502  501  0.00000000000E+00  0.00000000000E+00  0.96736931234E+02  0.96736931234E+02  0.00000000000E+00 0. -1.
         21   -1    0    0  501  502 -0.00000000000E+00 -0.00000000000E+00 -0.44143125129E+03  0.44143125129E+03  0.00000000000E+00 0. -1.
      99925    2    1    2    0    0 -0.35994386569E+02 -0.55979820832E+02 -0.23292758239E+03  0.35770032402E+03  0.26318230746E+03 0.  0.
         25    1    1    2    0    0  0.35994386569E+02  0.55979820832E+02 -0.11176673767E+03  0.18046785851E+03  0.12509000000E+03 0.  0.
         25    1    3    3    0    0 -0.64628863073E+01 -0.75488807827E+01 -0.15623517415E+03  0.20038885259E+03  0.12509000000E+03 0.  0.
         25    1    3    3    0    0 -0.29531500262E+02 -0.48430940049E+02 -0.76692408242E+02  0.15731147143E+03  0.12509000000E+03 0.  0.
<mgrwt>
<rscale>  2 0.41329265E+03</rscale>
<asrwt>0</asrwt>
<pdfrwt beam="1">  1       21 0.14226019E-01 0.41329265E+03</pdfrwt>
<pdfrwt beam="2">  1       21 0.64916361E-01 0.41329265E+03</pdfrwt>
<totfact> 0.88423711E+04</totfact>
</mgrwt>
</event>
<event>
 5    0  0.1600016E-004  0.4217910E+03  0.7546771E-02  0.1036485E+00
         21   -1    0    0  502  501  0.00000000000E+00  0.00000000000E+00  0.16259443646E+04  0.16259443646E+04  0.00000000000E+00 0. -1.
         21   -1    0    0  501  502 -0.00000000000E+00 -0.00000000000E+00 -0.27354513050E+02  0.27354513050E+02  0.00000000000E+00 0. -1.
         25    1    1    2    0    0 -0.35587021183E+02 -0.32649901016E+02  0.68237781033E+03  0.69542752048E+03  0.12509000000E+03 0.  0.
         25    1    1    2    0    0 -0.23483196578E+02  0.55413881039E+02  0.48159054299E+03  0.50119768349E+03  0.12509000000E+03 0.  0.
         25    1    1    2    0    0  0.59070217761E+02 -0.22763980023E+02  0.43462149826E+03  0.45667367371E+03  0.12509000000E+03 0.  0.
<mgrwt>
<rscale>  2 0.42179102E+03</rscale>
<asrwt>0</asrwt>
<pdfrwt beam="1">  1       21 0.23910940E+00 0.42179102E+03</pdfrwt>
<pdfrwt beam="2">  1       21 0.40227236E-02 0.42179102E+03</pdfrwt>
<totfact> 0.26439536E+04</totfact>
</mgrwt>
</event>
<event>
 6    0  0.1539497E-004  0.4085904E+03  0.7546771E-02  0.1040845E+00
         21   -1    0    0  502  501  0.00000000000E+00  0.00000000000E+00  0.47776492031E+03  0.47776492031E+03  0.00000000000E+00 0.  1.
         21   -1    0    0  501  502 -0.00000000000E+00 -0.00000000000E+00 -0.87357888387E+02  0.87357888387E+02  0.00000000000E+00 0.  1.
      99925    2    1    2    0    0  0.49931821114E+02 -0.32219517294E+02  0.27239983315E+03  0.38317641242E+03  0.26285206844E+03 0.  0.
         25    1    1    2    0    0 -0.49931821114E+02  0.32219517294E+02  0.11800719878E+03  0.18194639628E+03  0.12509000000E+03 0.  0.
         25    1    3    3    0    0  0.15232732326E+02  0.23227613264E+02  0.12244759899E+03  0.17723566444E+03  0.12509000000E+03 0.  0.
         25    1    3    3    0    0  0.34699088788E+02 -0.55447130557E+02  0.14995223416E+03  0.20594074798E+03  0.12509000000E+03 0.  0.
<mgrwt>
<rscale>  2 0.40859043E+03</rscale>
<asrwt>0</asrwt>
<pdfrwt beam="1">  1       21 0.70259546E-01 0.40859043E+03</pdfrwt>
<pdfrwt beam="2">  1       21 0.12846748E-01 0.40859043E+03</pdfrwt>
<totfact> 0.89462136E+04</totfact>
</mgrwt>
</event>
<event>
 6    0  0.1539497E-004  0.4679495E+03  0.7546771E-02  0.1022501E+00
         21   -1    0    0  502  501  0.00000000000E+00  0.00000000000E+00  0.46447079347E+03  0.46447079347E+03  0.00000000000E+00 0.  1.
         21   -1    0    0  501  502 -0.00000000000E+00 -0.00000000000E+00 -0.11786357138E+03  0.11786357138E+03  0.00000000000E+00 0.  1.
      99925    2    1    2    0    0 -0.11973776795E+03 -0.32777842302E+02  0.23282485571E+03  0.37255959272E+03  0.26302417507E+03 0.  0.
         25    1    1    2    0    0  0.11973776795E+03  0.32777842302E+02  0.11378236639E+03  0.20977477213E+03  0.12509000000E+03 0.  0.
         25    1    3    3    0    0 -0.61132784776E+02  0.23798734657E+02  0.10438956305E+03  0.17563680173E+03  0.12509000000E+03 0.  0.
         25    1    3    3    0    0 -0.58604983178E+02 -0.56576576959E+02  0.12843529265E+03  0.19692279099E+03  0.12509000000E+03 0.  0.
<mgrwt>
<rscale>  2 0.46794951E+03</rscale>
<asrwt>0</asrwt>
<pdfrwt beam="1">  1       21 0.68304528E-01 0.46794951E+03</pdfrwt>
<pdfrwt beam="2">  1       21 0.17332878E-01 0.46794951E+03</pdfrwt>
<totfact> 0.54031505E+04</totfact>
</mgrwt>
</event>
<event>
 6    0  0.1539497E-004  0.4118604E+03  0.7546771E-02  0.1039749E+00
         21   -1    0    0  502  501  0.00000000000E+00  0.00000000000E+00  0.69575439418E+02  0.69575439418E+02  0.00000000000E+00 0.  1.
         21   -1    0    0  501  502 -0.00000000000E+00 -0.00000000000E+00 -0.60951448710E+03  0.60951448710E+03  0.00000000000E+00 0.  1.
      99925    2    1    2    0    0 -0.15323715294E+02  0.57082342015E+02 -0.40031120012E+03  0.48252783980E+03  0.26285138238E+03 0.  0.
         25    1    3    3    0    0 -0.18881217045E+01  0.63394539054E+02 -0.24764548731E+03  0.28460187643E+03  0.12509000000E+03 0.  0.
         25    1    1    2    0    0  0.15323715294E+02 -0.57082342015E+02 -0.13962784757E+03  0.19656208672E+03  0.12509000000E+03 0.  0.
         25    1    3    3    0    0 -0.13435593589E+02 -0.63121970389E+01 -0.15266571281E+03  0.19792596337E+03  0.12509000000E+03 0.  0.
<mgrwt>
<rscale>  2 0.41186036E+03</rscale>
<asrwt>0</asrwt>
<pdfrwt beam="1">  1       21 0.10231682E-01 0.41186036E+03</pdfrwt>
<pdfrwt beam="2">  1       21 0.89634490E-01 0.41186036E+03</pdfrwt>
<totfact> 0.77088489E+04</totfact>
</mgrwt>
</event>
<event>
 6    0  0.1539497E-004  0.4255699E+03  0.7546771E-02  0.1035269E+00
         21   -1    0    0  502  501  0.00000000000E+00  0.00000000000E+00  0.15282417084E+03  0.15282417084E+03  0.00000000000E+00 0. -1.
         21   -1    0    0  501  502 -0.00000000000E+00 -0.00000000000E+00 -0.29627141991E+03  0.29627141991E+03  0.00000000000E+00 0. -1.
      99925    2    1    2    0    0 -0.29020582263E+02  0.53921560051E+02 -0.15144618077E+03  0.30959211466E+03  0.26298593680E+03 0.  0.
         25    1    3    3    0    0  0.10757100394E+01  0.64615744767E+02 -0.83619955050E+02  0.16375639409E+03  0.12509000000E+03 0.  0.
         25    1    3    3    0    0 -0.30096292302E+02 -0.10694184716E+02 -0.67826225723E+02  0.14583572057E+03  0.12509000000E+03 0.  0.
         25    1    1    2    0    0  0.29020582263E+02 -0.53921560051E+02  0.79989317093E+01  0.13950347609E+03  0.12509000000E+03 0.  0.
<mgrwt>
<rscale>  2 0.42556990E+03</rscale>
<asrwt>0</asrwt>
<pdfrwt beam="1">  1       21 0.22474143E-01 0.42556990E+03</pdfrwt>
<pdfrwt beam="2">  1       21 0.43569326E-01 0.42556990E+03</pdfrwt>
<totfact> 0.87801221E+04</totfact>
</mgrwt>
</event>
<event>
 6    0  0.1539497E-004  0.4246086E+03  0.7546771E-02  0.1035577E+00
         21   -1    0    0  502  501  0.00000000000E+00  0.00000000000E+00  0.22293110917E+03  0.22293110917E+03  0.00000000000E+00 0. -1.
         21   -1    0    0  501  502 -0.00000000000E+00 -0.00000000000E+00 -0.20218408365E+03  0.20218408365E+03  0.00000000000E+00 0. -1.
      99925    2    1    2    0    0  0.20536515480E+01  0.73825235196E+02  0.48025236405E+02  0.27731129665E+03  0.26294628554E+03 0.  0.
         25    1    3    3    0    0 -0.25294069432E+02  0.68685883586E+02  0.27922529482E+02  0.14759646441E+03  0.12509000000E+03 0.  0.
         25    1    1    2    0    0 -0.20536515480E+01 -0.73825235196E+02 -0.27278210884E+02  0.14780389618E+03  0.12509000000E+03 0.  0.
         25    1    3    3    0    0  0.27347720980E+02  0.51393516103E+01  0.20102706923E+02  0.12971483224E+03  0.12509000000E+03 0.  0.
<mgrwt>
<rscale>  2 0.42460863E+03</rscale>
<asrwt>0</asrwt>
<pdfrwt beam="1">  1       21 0.32783987E-01 0.42460863E+03</pdfrwt>
<pdfrwt beam="2">  1       21 0.29732953E-01 0.42460863E+03</pdfrwt>
<totfact> 0.90919496E+04</totfact>
</mgrwt>
</event>
<event>
 6    0  0.1539497E-004  0.3960283E+03  0.7546771E-02  0.1045164E+00
         21   -1    0    0  502  501  0.00000000000E+00  0.00000000000E+00  0.53241865607E+02  0.53241865607E+02  0.00000000000E+00 0.  1.
         21   -1    0    0  501  502 -0.00000000000E+00 -0.00000000000E+00 -0.73644316659E+03  0.73644316659E+03  0.00000000000E+00 0.  1.
      99925    2    1    2    0    0 -0.67626619983E+00 -0.18195325441E+02 -0.52192238312E+03  0.58477059969E+03  0.26310103203E+03 0.  0.
         25    1    3    3    0    0 -0.19093507891E+02 -0.23059539657E+02 -0.18901113065E+03  0.22862418950E+03  0.12509000000E+03 0.  0.
         25    1    1    2    0    0  0.67626619983E+00  0.18195325441E+02 -0.16127891787E+03  0.20491443251E+03  0.12509000000E+03 0.  0.
         25    1    3    3    0    0  0.18417241692E+02  0.48642142168E+01 -0.33291125247E+03  0.35614641019E+03  0.12509000000E+03 0.  0.
<mgrwt>
<rscale>  2 0.39602832E+03</rscale>
<asrwt>0</asrwt>
<pdfrwt beam="1">  1       21 0.78296855E-02 0.39602832E+03</pdfrwt>
<pdfrwt beam="2">  1       21 0.10830047E+00 0.39602832E+03</pdfrwt>
<totfact> 0.78941980E+04</totfact>
</mgrwt>
</event>
<event>
 6    0  0.1539497E-004  0.4581604E+03  0.7546771E-02  0.1025316E+00
         21   -1    0    0  502  501  0.00000000000E+00  0.00000000000E+00  0.44197329538E+02  0.44197329538E+02  0.00000000000E+00 0. -1.
         21   -1    0    0  501  502 -0.00000000000E+00 -0.00000000000E+00 -0.11873506855E+04  0.11873506855E+04  0.00000000000E+00 0. -1.
      99925    2    1    2    0    0 -0.11291254704E+02 -0.55628502275E+02 -0.98956514262E+03  0.10254925126E+04  0.26300893381E+03 0.  0.
         25    1    1    2    0    0  0.11291254704E+02  0.55628502275E+02 -0.15358821336E+03  0.20605550243E+03  0.12509000000E+03 0.  0.
         25    1    3    3    0    0 -0.39907150293E+02 -0.40483227315E+02 -0.57873194162E+03  0.59481899826E+03  0.12509000000E+03 0.  0.
         25    1    3    3    0    0  0.28615895589E+02 -0.15145274960E+02 -0.41083320100E+03  0.43067351437E+03  0.12509000000E+03 0.  0.
<mgrwt>
<rscale>  2 0.45816036E+03</rscale>
<asrwt>0</asrwt>
<pdfrwt beam="1">  1       21 0.64996081E-02 0.45816036E+03</pdfrwt>
<pdfrwt beam="2">  1       21 0.17461037E+00 0.45816036E+03</pdfrwt>
<totfact> 0.30414002E+04</totfact>
</mgrwt>
</event>
<event>
 6    0  0.1539497E-004  0.4187813E+03  0.7546771E-02  0.1037464E+00
         21   -1    0    0  502  501  0.00000000000E+00  0.00000000000E+00  0.89680540856E+02  0.89680540856E+02  0.00000000000E+00 0.  1.
         21   -1    0    0  501  502 -0.00000000000E+00 -0.00000000000E+00 -0.48889576308E+03  0.48889576308E+03  0.00000000000E+00 0.  1.
      99925    2    1    2    0    0 -0.72163124111E+02 -0.52171136131E+01 -0.23715193530E+03  0.36144327599E+03  0.26299328240E+03 0.  0.
         25    1    1    2    0    0  0.72163124111E+02  0.52171136131E+01 -0.16206328693E+03  0.21713302795E+03  0.12509000000E+03 0.  0.
         25    1    3    3    0    0 -0.25788145960E+02 -0.27272411306E+02 -0.76106598354E+02  0.15115731972E+03  0.12509000000E+03 0.  0.
         25    1    3    3    0    0 -0.46374978151E+02  0.22055297693E+02 -0.16104533694E+03  0.21028595627E+03  0.12509000000E+03 0.  0.
<mgrwt>
<rscale>  2 0.41878126E+03</rscale>
<asrwt>0</asrwt>
<pdfrwt beam="1">  1       21 0.13188315E-01 0.41878126E+03</pdfrwt>
<pdfrwt beam="2">  1       21 0.71896435E-01 0.41878126E+03</pdfrwt>
<totfact> 0.80776997E+04</totfact>
</mgrwt>
</event>
<event>
 6    0  0.1539497E-004  0.4207155E+03  0.7546771E-02  0.1036834E+00
         21   -1    0    0  502  501  0.00000000000E+00  0.00000000000E+00  0.10917349781E+03  0.10917349781E+03  0.00000000000E+00 0. -1.
         21   -1    0    0  501  502 -0.00000000000E+00 -0.00000000000E+00 -0.40532167294E+03  0.40532167294E+03  0.00000000000E+00 0. -1.
      99925    2    1    2    0    0 -0.11797072845E+02  0.61663584166E+02 -0.24674840477E+03  0.36607207972E+03  0.26302551920E+03 0.  0.
         25    1    3    3    0    0  0.19732906619E+02  0.61558354910E+02 -0.11651263981E+03  0.18276083278E+03  0.12509000000E+03 0.  0.
         25    1    1    2    0    0  0.11797072845E+02 -0.61663584166E+02 -0.49399770369E+02  0.14842309103E+03  0.12509000000E+03 0.  0.
         25    1    3    3    0    0 -0.31529979464E+02  0.10522925615E+00 -0.13023576496E+03  0.18331124693E+03  0.12509000000E+03 0.  0.
<mgrwt>
<rscale>  2 0.42071551E+03</rscale>
<asrwt>0</asrwt>
<pdfrwt beam="1">  1       21 0.16054926E-01 0.42071551E+03</pdfrwt>
<pdfrwt beam="2">  1       21 0.59606127E-01 0.42071551E+03</pdfrwt>
<totfact> 0.85142558E+04</totfact>
</mgrwt>
</event>
<event>
 6    0  0.1539497E-004  0.4536950E+03  0.7546771E-02  0.1026626E+00
         21   -1    0    0  502  501  0.00000000000E+00  0.00000000000E+00  0.22132296742E+03  0.22132296742E+03  0.00000000000E+00 0. -1.
         21   -1    0    0  501  502 -0.00000000000E+00 -0.00000000000E+00 -0.23250997390E+03  0.23250997390E+03  0.00000000000E+00 0. -1.
      99925    2    1    2    0    0 -0.10777601528E+03 -0.28019734405E+02  0.38351598551E+01  0.28568435059E+03  0.26305905180E+03 0.  0.
         25    1    1    2    0    0  0.10777601528E+03  0.28019734405E+02 -0.15022166332E+02  0.16814859074E+03  0.12509000000E+03 0.  0.
         25    1    3    3    0    0 -0.59591778396E+02 -0.54720931329E+02  0.14097691433E+01  0.14898005211E+03  0.12509000000E+03 0.  0.
         25    1    3    3    0    0 -0.48184236887E+02  0.26701196924E+02  0.24253907118E+01  0.13670429848E+03  0.12509000000E+03 0.  0.
<mgrwt>
<rscale>  2 0.45369504E+03</rscale>
<asrwt>0</asrwt>
<pdfrwt beam="1">  1       21 0.32547496E-01 0.45369504E+03</pdfrwt>
<pdfrwt beam="2">  1       21 0.34192643E-01 0.45369504E+03</pdfrwt>
<totfact> 0.69350665E+04</totfact>
</mgrwt>
</event>
<event>
 6    0  0.1539497E-004  0.4190521E+03  0.7546771E-02  0.1037375E+00
         21   -1    0    0  502  501  0.00000000000E+00  0.00000000000E+00  0.25161867581E+03  0.25161867581E+03  0.00000000000E+00 0.  1.
         21   -1    0    0  501  502 -0.00000000000E+00 -0.00000000000E+00 -0.17447502111E+03  0.17447502111E+03  0.00000000000E+00 0.  1.
      99925    2    1    2    0    0 -0.65158817007E+02  0.31572959346E+02  0.31879379087E+02  0.27463780915E+03  0.26299640341E+03 0.  0.
         25    1    3    3    0    0 -0.27414203176E+02 -0.22921702889E+02  0.28625606526E+01  0.13012549847E+03  0.12509000000E+03 0.  0.
         25    1    1    2    0    0  0.65158817007E+02 -0.31572959346E+02  0.45264275613E+02  0.15145588778E+03  0.12509000000E+03 0.  0.
         25    1    3    3    0    0 -0.37744613830E+02  0.54494662234E+02  0.29016818434E+02  0.14451231068E+03  0.12509000000E+03 0.  0.
<mgrwt>
<rscale>  2 0.41905214E+03</rscale>
<asrwt>0</asrwt>
<pdfrwt beam="1">  1       21 0.37002747E-01 0.41905214E+03</pdfrwt>
<pdfrwt beam="2">  1       21 0.25658091E-01 0.41905214E+03</pdfrwt>
<totfact> 0.95225406E+04</totfact>
</mgrwt>
</event>
<event>
 6    0  0.1539497E-004  0.7884040E+03  0.7546771E-02  0.9576955E-01
         21   -1    0    0  502  501  0.00000000000E+00  0.00000000000E+00  0.20286964075E+04  0.20286964075E+04  0.00000000000E+00 0.  1.
         21   -1    0    0  501  502 -0.00000000000E+00 -0.00000000000E+00 -0.76598563974E+02  0.76598563974E+02  0.00000000000E+00 0.  1.
      99925    2    1    2    0    0 -0.10137746337E+03  0.16245895974E+02  0.19195781996E+04  0.19402302734E+04  0.26300519061E+03 0.  0.
         25    1    3    3    0    0 -0.77240105345E+02  0.27527820118E+02  0.12110498625E+04  0.12202512415E+04  0.12509000000E+03 0.  0.
         25    1    1    2    0    0  0.10137746337E+03 -0.16245895974E+02  0.32519643970E+02  0.16506469810E+03  0.12509000000E+03 0.  0.
         25    1    3    3    0    0 -0.24137358025E+02 -0.11281924144E+02  0.70852833705E+03  0.71997903190E+03  0.12509000000E+03 0.  0.
<mgrwt>
<rscale>  2 0.78840404E+03</rscale>
<asrwt>0</asrwt>
<pdfrwt beam="1">  1       21 0.29833767E+00 0.78840404E+03</pdfrwt>
<pdfrwt beam="2">  1       21 0.11264496E-01 0.78840404E+03</pdfrwt>
<totfact> 0.16531339E+03</totfact>
</mgrwt>
</event>
<event>
 6    0  0.1539497E-004  0.4253025E+03  0.7546771E-02  0.1035354E+00
         21   -1    0    0  502  501  0.00000000000E+00  0.00000000000E+00  0.19485222501E+02  0.19485222501E+02  0.00000000000E+00 0. -1.
         21   -1    0    0  501  502 -0.00000000000E+00 -0.00000000000E+00 -0.23207613958E+04  0.23207613958E+04  0.00000000000E+00 0. -1.
      99925    2    1    2    0    0  0.28067851202E+02 -0.75253628046E+02 -0.13941029251E+04  0.14209742304E+04  0.26304730541E+03 0.  0.
         25    1    1    2    0    0 -0.28067851202E+02  0.75253628046E+02 -0.90717324821E+03  0.91927238791E+03  0.12509000000E+03 0.  0.
         25    1    3    3    0    0  0.18672500634E+02 -0.28130040924E+02 -0.88927637414E+03  0.89866564372E+03  0.12509000000E+03 0.  0.
         25    1    3    3    0    0  0.93953505683E+01 -0.47123587122E+02 -0.50482655092E+03  0.52230858665E+03  0.12509000000E+03 0.  0.
<mgrwt>
<rscale>  2 0.42530249E+03</rscale>
<asrwt>0</asrwt>
<pdfrwt beam="1">  1       21 0.28654743E-02 0.42530249E+03</pdfrwt>
<pdfrwt beam="2">  1       21 0.34128840E+00 0.42530249E+03</pdfrwt>
<totfact> 0.11298815E+04</totfact>
</mgrwt>
</event>
<event>
 5    0  0.1539497E-004  0.6437228E+03  0.7546771E-02  0.9818630E-01
         21   -1    0    0  502  501  0.00000000000E+00  0.00000000000E+00  0.42845607984E+03  0.42845607984E+03  0.00000000000E+00 0. -1.
         21   -1    0    0  501  502 -0.00000000000E+00 -0.00000000000E+00 -0.24178615170E+03  0.24178615170E+03  0.00000000000E+00 0. -1.
         25    1    1    2    0    0  0.10610473609E+03 -0.14002287035E+03  0.12306831172E+03  0.24831016228E+03  0.12509000000E+03 0.  0.
         25    1    1    2    0    0  0.29755339330E+02 -0.52186483029E+02  0.69747243782E+02  0.15530935369E+03  0.12509000000E+03 0.  0.
         25    1    1    2    0    0 -0.13586007542E+03  0.19220935338E+03 -0.61456273663E+01  0.26662271557E+03  0.12509000000E+03 0.  0.
<mgrwt>
<rscale>  2 0.64372276E+03</rscale>
<asrwt>0</asrwt>
<pdfrwt beam="1">  1       21 0.63008247E-01 0.64372276E+03</pdfrwt>
<pdfrwt beam="2">  1       21 0.35556787E-01 0.64372276E+03</pdfrwt>
<totfact> 0.15335045E+04</totfact>
</mgrwt>
</event>
<event>
 6    0  0.1539497E-004  0.4596945E+03  0.7546771E-02  0.1024870E+00
         21   -1    0    0  502  501  0.00000000000E+00  0.00000000000E+00  0.23301534512E+03  0.23301534512E+03  0.00000000000E+00 0. -1.
         21   -1    0    0  501  502 -0.00000000000E+00 -0.00000000000E+00 -0.22672220247E+03  0.22672220247E+03  0.00000000000E+00 0. -1.
      99925    2    1    2    0    0  0.57276985370E+02  0.84518222753E+02  0.61934594498E+02  0.28895270548E+03  0.26312314413E+03 0.  0.
         25    1    1    2    0    0 -0.57276985370E+02 -0.84518222753E+02 -0.55641451843E+02  0.17078484211E+03  0.12509000000E+03 0.  0.
         25    1    3    3    0    0  0.37134250610E+02  0.59941832532E+02  0.69779289253E+02  0.15965159932E+03  0.12509000000E+03 0.  0.
         25    1    3    3    0    0  0.20142734759E+02  0.24576390221E+02 -0.78446947549E+01  0.12930110617E+03  0.12509000000E+03 0.  0.
<mgrwt>
<rscale>  2 0.45969447E+03</rscale>
<asrwt>0</asrwt>
<pdfrwt beam="1">  1       21 0.34266962E-01 0.45969447E+03</pdfrwt>
<pdfrwt beam="2">  1       21 0.33341500E-01 0.45969447E+03</pdfrwt>
<totfact> 0.65704317E+04</totfact>
</mgrwt>
</event>
<event>
 6    0  0.1539497E-004  0.4200393E+03  0.7546771E-02  0.1037054E+00
         21   -1    0    0  502  501  0.00000000000E+00  0.00000000000E+00  0.27756132331E+03  0.27756132331E+03  0.00000000000E+00 0. -1.
         21   -1    0    0  501  502 -0.00000000000E+00 -0.00000000000E+00 -0.15891351438E+03  0.15891351438E+03  0.00000000000E+00 0. -1.
      99925    2    1    2    0    0 -0.23621219092E+02  0.14219335932E+02  0.15091096665E+03  0.30438179869E+03  0.26289543171E+03 0.  0.
         25    1    3    3    0    0  0.15689340121E+02 -0.18058478987E+01  0.10642682818E+03  0.16499574036E+03  0.12509000000E+03 0.  0.
         25    1    1    2    0    0  0.23621219092E+02 -0.14219335932E+02 -0.32263157713E+02  0.13209303900E+03  0.12509000000E+03 0.  0.
         25    1    3    3    0    0 -0.39310559213E+02  0.16025183831E+02  0.44484138465E+02  0.13938605833E+03  0.12509000000E+03 0.  0.
<mgrwt>
<rscale>  2 0.42003926E+03</rscale>
<asrwt>0</asrwt>
<pdfrwt beam="1">  1       21 0.40817842E-01 0.42003926E+03</pdfrwt>
<pdfrwt beam="2">  1       21 0.23369634E-01 0.42003926E+03</pdfrwt>
<totfact> 0.93331232E+04</totfact>
</mgrwt>
</event>
<event>
 6    0  0.1539497E-004  0.4047306E+03  0.7546771E-02  0.1042154E+00
         21   -1    0    0  502  501  0.00000000000E+00  0.00000000000E+00  0.68453906250E+02  0.68453906250E+02  0.00000000000E+00 0. -1.
         21   -1    0    0  501  502 -0.00000000000E+00 -0.00000000000E+00 -0.59823791285E+03  0.59823791285E+03  0.00000000000E+00 0. -1.
      99925    2    1    2    0    0  0.18556967816E+01 -0.48411709118E+02 -0.39044130585E+03  0.47327249861E+03  0.26305000937E+03 0.  0.
         25    1    1    2    0    0 -0.18556967816E+01  0.48411709118E+02 -0.13934270075E+03  0.19341932050E+03  0.12509000000E+03 0.  0.
         25    1    3    3    0    0 -0.14378811467E+02  0.39473762639E-01 -0.13709157791E+03  0.18614070111E+03  0.12509000000E+03 0.  0.
         25    1    3    3    0    0  0.16234508248E+02 -0.48451182881E+02 -0.25334972795E+03  0.28713179749E+03  0.12509000000E+03 0.  0.
<mgrwt>
<rscale>  2 0.40473064E+03</rscale>
<asrwt>0</asrwt>
<pdfrwt beam="1">  1       21 0.10066752E-01 0.40473064E+03</pdfrwt>
<pdfrwt beam="2">  1       21 0.87976157E-01 0.40473064E+03</pdfrwt>
<totfact> 0.83076596E+04</totfact>
</mgrwt>
</event>
<event>
 6    0  0.1539497E-004  0.4049739E+03  0.7546771E-02  0.1042071E+00
         21   -1    0    0  502  501  0.00000000000E+00  0.00000000000E+00  0.30710024663E+02  0.30710024663E+02  0.00000000000E+00 0. -1.
         21   -1    0    0  501  502 -0.00000000000E+00 -0.00000000000E+00 -0.13351004368E+04  0.13351004368E+04  0.00000000000E+00 0. -1.
      99925    2    1    2    0    0 -0.46859139178E+02  0.26175824242E+02 -0.89730569450E+03  0.93657110151E+03  0.26292007550E+03 0.  0.
         25    1    3    3    0    0 -0.63353667701E+02  0.20802782244E+02 -0.45228545033E+03  0.47397898649E+03  0.12509000000E+03 0.  0.
         25    1    1    2    0    0  0.46859139178E+02 -0.26175824242E+02 -0.40708471764E+03  0.42923935996E+03  0.12509000000E+03 0.  0.
         25    1    3    3    0    0  0.16494528522E+02  0.53730419979E+01 -0.44502024417E+03  0.46259211502E+03  0.12509000000E+03 0.  0.
<mgrwt>
<rscale>  2 0.40497391E+03</rscale>
<asrwt>0</asrwt>
<pdfrwt beam="1">  1       21 0.45161800E-02 0.40497391E+03</pdfrwt>
<pdfrwt beam="2">  1       21 0.19633831E+00 0.40497391E+03</pdfrwt>
<totfact> 0.41048740E+04</totfact>
</mgrwt>
</event>
<event>
 6    0  0.1539497E-004  0.4403655E+03  0.7546771E-02  0.1030635E+00
         21   -1    0    0  502  501  0.00000000000E+00  0.00000000000E+00  0.13959395444E+03  0.13959395444E+03  0.00000000000E+00 0.  1.
         21   -1    0    0  501  502 -0.00000000000E+00 -0.00000000000E+00 -0.34729609834E+03  0.34729609834E+03  0.00000000000E+00 0.  1.
      99925    2    1    2    0    0 -0.90711408872E+02  0.36716632548E+02 -0.14711555325E+03  0.31690501263E+03  0.26307628213E+03 0.  0.
         25    1    3    3    0    0 -0.42857195331E+02 -0.10189089271E+02 -0.38179459499E+02  0.13800628957E+03  0.12509000000E+03 0.  0.
         25    1    3    3    0    0 -0.47854213541E+02  0.46905721819E+02 -0.10893609375E+03  0.17889872306E+03  0.12509000000E+03 0.  0.
         25    1    1    2    0    0  0.90711408872E+02 -0.36716632548E+02 -0.60586590654E+02  0.16998504014E+03  0.12509000000E+03 0.  0.
<mgrwt>
<rscale>  2 0.44036547E+03</rscale>
<asrwt>0</asrwt>
<pdfrwt beam="1">  1       21 0.20528522E-01 0.44036547E+03</pdfrwt>
<pdfrwt beam="2">  1       21 0.51072956E-01 0.44036547E+03</pdfrwt>
<totfact> 0.74486464E+04</totfact>
</mgrwt>
</event>
<event>
 6    0  0.1539497E-004  0.4589772E+03  0.7546771E-02  0.1025078E+00
         21   -1    0    0  502  501  0.00000000000E+00  0.00000000000E+00  0.90815927625E+03  0.90815927625E+03  0.00000000000E+00 0.  1.
         21   -1    0    0  501  502 -0.00000000000E+00 -0.00000000000E+00 -0.57990940601E+02  0.57990940601E+02  0.00000000000E+00 0.  1.
      99925    2    1    2    0    0  0.49153046450E+02  0.10516695795E+03  0.50591186572E+03  0.58191573609E+03  0.26306462516E+03 0.  0.
         25    1    1    2    0    0 -0.49153046450E+02 -0.10516695795E+03  0.34425646994E+03  0.38423448077E+03  0.12509000000E+03 0.  0.
         25    1    3    3    0    0 -0.15033170189E+01  0.35908106662E+02  0.29185309430E+03  0.31955811496E+03  0.12509000000E+03 0.  0.
         25    1    3    3    0    0  0.50656363469E+02  0.69258851284E+02  0.21405877142E+03  0.26235762112E+03  0.12509000000E+03 0.  0.
<mgrwt>
<rscale>  2 0.45897717E+03</rscale>
<asrwt>0</asrwt>
<pdfrwt beam="1">  1       21 0.13355283E+00 0.45897717E+03</pdfrwt>
<pdfrwt beam="2">  1       21 0.85280800E-02 0.45897717E+03</pdfrwt>
<totfact> 0.39258654E+04</totfact>
</mgrwt>
</event>
<event>
 6    0  0.1539497E-004  0.6901687E+03  0.7546771E-02  0.9734194E-01
         21   -1    0    0  502  501  0.00000000000E+00  0.00000000000E+00  0.58258742521E+02  0.58258742521E+02  0.00000000000E+00 0.  1.
         21   -1    0    0  501  502 -0.00000000000E+00 -0.00000000000E+00 -0.20440399044E+04  0.20440399044E+04  0.00000000000E+00 0.  1.
      99925    2    1    2    0    0  0.15510556935E+03 -0.95332560642E+02 -0.17508605716E+04  0.17798374452E+04  0.26298774771E+03 0.  0.
         25    1    1    2    0    0 -0.15510556935E+03  0.95332560642E+02 -0.23492059024E+03  0.32246120167E+03  0.12509000000E+03 0.  0.
         25    1    3    3    0    0  0.33443133301E+02 -0.50063658632E+02 -0.70150829741E+03  0.71511272714E+03  0.12509000000E+03 0.  0.
         25    1    3    3    0    0  0.12166243605E+03 -0.45268902009E+02 -0.10493522742E+04  0.10647247181E+04  0.12509000000E+03 0.  0.
<mgrwt>
<rscale>  2 0.69016866E+03</rscale>
<asrwt>0</asrwt>
<pdfrwt beam="1">  1       21 0.85674654E-02 0.69016866E+03</pdfrwt>
<pdfrwt beam="2">  1       21 0.30059399E+00 0.69016866E+03</pdfrwt>
<totfact> 0.27068426E+03</totfact>
</mgrwt>
</event>
<event>
 6    0  0.1539497E-004  0.4121419E+03  0.7546771E-02  0.1039655E+00
         21   -1    0    0  502  501  0.00000000000E+00  0.00000000000E+00  0.61916502944E+03  0.61916502944E+03  0.00000000000E+00 0. -1.
         21   -1    0    0  501  502 -0.00000000000E+00 -0.00000000000E+00 -0.68584686488E+02  0.68584686488E+02  0.00000000000E+00 0. -1.
      99925    2    1    2    0    0 -0.27379963627E+02 -0.39387774969E+02  0.43603881862E+03  0.51148761529E+03  0.26303739283E+03 0.  0.
         25    1    3    3    0    0 -0.20966280302E+02 -0.55260793667E+02  0.19110521958E+03  0.23592806801E+03  0.12509000000E+03 0.  0.
         25    1    3    3    0    0 -0.64136833248E+01  0.15873018697E+02  0.24493359904E+03  0.27555954727E+03  0.12509000000E+03 0.  0.
         25    1    1    2    0    0  0.27379963627E+02  0.39387774969E+02  0.11454152434E+03  0.17626210064E+03  0.12509000000E+03 0.  0.
<mgrwt>
<rscale>  2 0.41214191E+03</rscale>
<asrwt>0</asrwt>
<pdfrwt beam="1">  1       21 0.91053678E-01 0.41214191E+03</pdfrwt>
<pdfrwt beam="2">  1       21 0.10085984E-01 0.41214191E+03</pdfrwt>
<totfact> 0.76212286E+04</totfact>
</mgrwt>
</event>
<event>
 6    0  0.1539497E-004  0.4029766E+03  0.7546771E-02  0.1042754E+00
         21   -1    0    0  502  501  0.00000000000E+00  0.00000000000E+00  0.85863471640E+03  0.85863471640E+03  0.00000000000E+00 0.  1.
         21   -1    0    0  501  502 -0.00000000000E+00 -0.00000000000E+00 -0.47281499057E+02  0.47281499057E+02  0.00000000000E+00 0.  1.
      99925    2    1    2    0    0  0.21137972367E+02 -0.27123776865E+02  0.45442594995E+03  0.52614378958E+03  0.26294834128E+03 0.  0.
         25    1    3    3    0    0  0.31399071939E+02 -0.20302016767E+02  0.16354462155E+03  0.20926639707E+03  0.12509000000E+03 0.  0.
         25    1    3    3    0    0 -0.10261099572E+02 -0.68217600985E+01  0.29088132840E+03  0.31687739251E+03  0.12509000000E+03 0.  0.
         25    1    1    2    0    0 -0.21137972367E+02  0.27123776865E+02  0.35692726739E+03  0.37977242587E+03  0.12509000000E+03 0.  0.
<mgrwt>
<rscale>  2 0.40297661E+03</rscale>
<asrwt>0</asrwt>
<pdfrwt beam="1">  1       21 0.12626980E+00 0.40297661E+03</pdfrwt>
<pdfrwt beam="2">  1       21 0.69531622E-02 0.40297661E+03</pdfrwt>
<totfact> 0.66033874E+04</totfact>
</mgrwt>
</event>
<event>
 6    0  0.1539497E-004  0.4357370E+03  0.7546771E-02  0.1032063E+00
         21   -1    0    0  502  501  0.00000000000E+00  0.00000000000E+00  0.45719636030E+03  0.45719636030E+03  0.00000000000E+00 0.  1.
         21   -1    0    0  501  502 -0.00000000000E+00 -0.00000000000E+00 -0.10382121391E+03  0.10382121391E+03  0.00000000000E+00 0.  1.
      99925    2    1    2    0    0  0.17783302012E+02 -0.47116641820E+02  0.32868906229E+03  0.42392951997E+03  0.26295154394E+03 0.  0.
         25    1    1    2    0    0 -0.17783302012E+02  0.47116641820E+02  0.24686084100E+02  0.13708805424E+03  0.12509000000E+03 0.  0.
         25    1    3    3    0    0 -0.28507637873E+02 -0.37108604539E+02  0.17607829714E+03  0.22099956735E+03  0.12509000000E+03 0.  0.
         25    1    3    3    0    0  0.46290939886E+02 -0.10008037282E+02  0.15261076516E+03  0.20292995261E+03  0.12509000000E+03 0.  0.
<mgrwt>
<rscale>  2 0.43573699E+03</rscale>
<asrwt>0</asrwt>
<pdfrwt beam="1">  1       21 0.67234758E-01 0.43573699E+03</pdfrwt>
<pdfrwt beam="2">  1       21 0.15267826E-01 0.43573699E+03</pdfrwt>
<totfact> 0.71419427E+04</totfact>
</mgrwt>
</event>
<event>
 6    0  0.1539497E-004  0.4318134E+03  0.7546771E-02  0.1033289E+00
         21   -1    0    0  502  501  0.00000000000E+00  0.00000000000E+00  0.26324288533E+03  0.26324288533E+03  0.00000000000E+00 0.  1.
         21   -1    0    0  501  502 -0.00000000000E+00 -0.00000000000E+00 -0.17708244822E+03  0.17708244822E+03  0.00000000000E+00 0.  1.
      99925    2    1    2    0    0 -0.53335968014E+02  0.68434693675E+02  0.78820844082E+02  0.28791335729E+03  0.26297023228E+03 0.  0.
         25    1    3    3    0    0 -0.59418546731E+01  0.58386523286E+02  0.13856163046E+02  0.13886609771E+03  0.12509000000E+03 0.  0.
         25    1    1    2    0    0  0.53335968014E+02 -0.68434693675E+02  0.73395930311E+01  0.15241197626E+03  0.12509000000E+03 0.  0.
         25    1    3    3    0    0 -0.47394113341E+02  0.10048170390E+02  0.64964681036E+02  0.14904725958E+03  0.12509000000E+03 0.  0.
<mgrwt>
<rscale>  2 0.43181336E+03</rscale>
<asrwt>0</asrwt>
<pdfrwt beam="1">  1       21 0.38712189E-01 0.43181336E+03</pdfrwt>
<pdfrwt beam="2">  1       21 0.26041536E-01 0.43181336E+03</pdfrwt>
<totfact> 0.84147900E+04</totfact>
</mgrwt>
</event>
<event>
 6    0  0.1539497E-004  0.4017282E+03  0.7546771E-02  0.1043183E+00
         21   -1    0    0  502  501  0.00000000000E+00  0.00000000000E+00  0.50495122396E+03  0.50495122396E+03  0.00000000000E+00 0. -1.
         21   -1    0    0  501  502 -0.00000000000E+00 -0.00000000000E+00 -0.79901559379E+02  0.79901559379E+02  0.00000000000E+00 0. -1.
      99925    2    1    2    0    0 -0.30669193287E+02  0.35377070546E+02  0.30307993059E+03  0.40397641494E+03  0.26295886172E+03 0.  0.
         25    1    3    3    0    0  0.65511553408E+01 -0.73513572698E+01  0.18095049059E+03  0.22019888336E+03  0.12509000000E+03 0.  0.
         25    1    3    3    0    0 -0.37220348628E+02  0.42728427815E+02  0.12212944000E+03  0.18377753157E+03  0.12509000000E+03 0.  0.
         25    1    1    2    0    0  0.30669193287E+02 -0.35377070546E+02  0.12196973399E+03  0.18087636840E+03  0.12509000000E+03 0.  0.
<mgrwt>
<rscale>  2 0.40172822E+03</rscale>
<asrwt>0</asrwt>
<pdfrwt beam="1">  1       21 0.74257532E-01 0.40172822E+03</pdfrwt>
<pdfrwt beam="2">  1       21 0.11750230E-01 0.40172822E+03</pdfrwt>
<totfact> 0.93014893E+04</totfact>
</mgrwt>
</event>
<event>
 6    0  0.1539497E-004  0.4468933E+03  0.7546771E-02  0.1028653E+00
         21   -1    0    0  502  501  0.00000000000E+00  0.00000000000E+00  0.71587376791E+02  0.71587376791E+02  0.00000000000E+00 0. -1.
         21   -1    0    0  501  502 -0.00000000000E+00 -0.00000000000E+00 -0.69744695000E+03  0.69744695000E+03  0.00000000000E+00 0. -1.
      99925    2    1    2    0    0  0.41100136932E+02  0.19748854935E+02 -0.23287972921E+03  0.35411276261E+03  0.26283767204E+03 0.  0.
         25    1    3    3    0    0 -0.16729856883E+02  0.25115309399E+02 -0.11872504473E+03  0.17508229843E+03  0.12509000000E+03 0.  0.
         25    1    1    2    0    0 -0.41100136932E+02 -0.19748854935E+02 -0.39297984401E+03  0.41492156418E+03  0.12509000000E+03 0.  0.
         25    1    3    3    0    0  0.57829993814E+02 -0.53664544639E+01 -0.11415468448E+03  0.17903046419E+03  0.12509000000E+03 0.  0.
<mgrwt>
<rscale>  2 0.44689327E+03</rscale>
<asrwt>0</asrwt>
<pdfrwt beam="1">  1       21 0.10527556E-01 0.44689327E+03</pdfrwt>
<pdfrwt beam="2">  1       21 0.10256572E+00 0.44689327E+03</pdfrwt>
<totfact> 0.52565284E+04</totfact>
</mgrwt>
</event>
<event>
 6    0  0.1539497E-004  0.3950366E+03  0.7546771E-02  0.1045512E+00
         21   -1    0    0  502  501  0.00000000000E+00  0.00000000000E+00  0.53048194199E+03  0.53048194199E+03  0.00000000000E+00 0.  1.
         21   -1    0    0  501  502 -0.00000000000E+00 -0.00000000000E+00 -0.73543471376E+02  0.73543471376E+02  0.00000000000E+00 0.  1.
      99925    2    1    2    0    0 -0.23080681784E+02  0.25409017954E+02  0.30931865727E+03  0.40751217346E+03  0.26307756218E+03 0.  0.
         25    1    1    2    0    0  0.23080681784E+02 -0.25409017954E+02  0.14761981334E+03  0.19651323990E+03  0.12509000000E+03 0.  0.
         25    1    3    3    0    0 -0.39470138858E+02 -0.55394487754E+01  0.11967938648E+03  0.17764920771E+03  0.12509000000E+03 0.  0.
         25    1    3    3    0    0  0.16389457074E+02  0.30948466729E+02  0.18963927079E+03  0.22986296575E+03  0.12509000000E+03 0.  0.
<mgrwt>
<rscale>  2 0.39503662E+03</rscale>
<asrwt>0</asrwt>
<pdfrwt beam="1">  1       21 0.78012048E-01 0.39503662E+03</pdfrwt>
<pdfrwt beam="2">  1       21 0.10815217E-01 0.39503662E+03</pdfrwt>
<totfact> 0.96714378E+04</totfact>
</mgrwt>
</event>
<event>
 6    0  0.1539497E-004  0.4885416E+03  0.7546771E-02  0.1016814E+00
         21   -1    0    0  502  501  0.00000000000E+00  0.00000000000E+00  0.25524810680E+03  0.25524810680E+03  0.00000000000E+00 0. -1.
         21   -1    0    0  501  502 -0.00000000000E+00 -0.00000000000E+00 -0.23376556628E+03  0.23376556628E+03  0.00000000000E+00 0. -1.
      99925    2    1    2    0    0 -0.54224969698E+02  0.42865095035E+02  0.13775407260E+03  0.30477377246E+03  0.26293174809E+03 0.  0.
         25    1    3    3    0    0 -0.10314707385E+02 -0.93235087693E+01  0.89152381472E+02  0.15423675381E+03  0.12509000000E+03 0.  0.
         25    1    1    2    0    0  0.54224969698E+02 -0.42865095035E+02 -0.11627153208E+03  0.18423990063E+03  0.12509000000E+03 0.  0.
         25    1    3    3    0    0 -0.43910262312E+02  0.52188603804E+02  0.48601691126E+02  0.15053701865E+03  0.12509000000E+03 0.  0.
<mgrwt>
<rscale>  2 0.48854158E+03</rscale>
<asrwt>0</asrwt>
<pdfrwt beam="1">  1       21 0.37536486E-01 0.48854158E+03</pdfrwt>
<pdfrwt beam="2">  1       21 0.34377289E-01 0.48854158E+03</pdfrwt>
<totfact> 0.51034757E+04</totfact>
</mgrwt>
</event>
<event>
 6    0  0.1539497E-004  0.4137217E+03  0.7546771E-02  0.1039129E+00
         21   -1    0    0  502  501  0.00000000000E+00  0.00000000000E+00  0.69864378157E+03  0.69864378157E+03  0.00000000000E+00 0. -1.
         21   -1    0    0  501  502 -0.00000000000E+00 -0.00000000000E+00 -0.61249258764E+02  0.61249258764E+02  0.00000000000E+00 0. -1.
      99925    2    1    2    0    0 -0.68696120301E+01  0.60192654111E+02  0.36366692212E+03  0.45290011752E+03  0.26304854881E+03 0.  0.
         25    1    3    3    0    0 -0.95293044575E+01  0.68703607011E+02  0.21738476018E+03  0.26022035915E+03  0.12509000000E+03 0.  0.
         25    1    3    3    0    0  0.26596924274E+01 -0.85109528998E+01  0.14628216194E+03  0.19267975837E+03  0.12509000000E+03 0.  0.
         25    1    1    2    0    0  0.68696120301E+01 -0.60192654111E+02  0.27372760068E+03  0.30699292281E+03  0.12509000000E+03 0.  0.
<mgrwt>
<rscale>  2 0.41372171E+03</rscale>
<asrwt>0</asrwt>
<pdfrwt beam="1">  1       21 0.10274173E+00 0.41372171E+03</pdfrwt>
<pdfrwt beam="2">  1       21 0.90072443E-02 0.41372171E+03</pdfrwt>
<totfact> 0.69780144E+04</totfact>
</mgrwt>
</event>
<event>
 6    0  0.1539497E-004  0.4069426E+03  0.7546771E-02  0.1041402E+00
         21   -1    0    0  502  501  0.00000000000E+00  0.00000000000E+00  0.20482664609E+03  0.20482664609E+03  0.00000000000E+00 0. -1.
         21   -1    0    0  501  502 -0.00000000000E+00 -0.00000000000E+00 -0.20212496736E+03  0.20212496736E+03  0.00000000000E+00 0. -1.
      99925    2    1    2    0    0 -0.36173308661E+02 -0.34064969706E+02  0.30845397390E+02  0.26944340490E+03  0.26301973212E+03 0.  0.
         25    1    1    2    0    0  0.36173308661E+02  0.34064969706E+02 -0.28143718659E+02  0.13750820856E+03  0.12509000000E+03 0.  0.
         25    1    3    3    0    0 -0.14125943443E+02 -0.13336688589E+02 -0.25196280793E+02  0.12907273223E+03  0.12509000000E+03 0.  0.
         25    1    3    3    0    0 -0.22047365219E+02 -0.20728281117E+02  0.56041678183E+02  0.14037067267E+03  0.12509000000E+03 0.  0.
<mgrwt>
<rscale>  2 0.40694265E+03</rscale>
<asrwt>0</asrwt>
<pdfrwt beam="1">  1       21 0.30121566E-01 0.40694265E+03</pdfrwt>
<pdfrwt beam="2">  1       21 0.29724260E-01 0.40694265E+03</pdfrwt>
<totfact> 0.10809256E+05</totfact>
</mgrwt>
</event>
<event>
 6    0  0.1539497E-004  0.4138395E+03  0.7546771E-02  0.1039090E+00
         21   -1    0    0  502  501  0.00000000000E+00  0.00000000000E+00  0.72249059527E+03  0.72249059527E+03  0.00000000000E+00 0. -1.
         21   -1    0    0  501  502 -0.00000000000E+00 -0.00000000000E+00 -0.59261369480E+02  0.59261369480E+02  0.00000000000E+00 0. -1.
      99925    2    1    2    0    0 -0.10436936423E+02  0.71191398948E+01  0.30916520734E+03  0.40602806471E+03  0.26289931935E+03 0.  0.
         25    1    1    2    0    0  0.10436936423E+02 -0.71191398948E+01  0.35406401845E+03  0.37572390003E+03  0.12509000000E+03 0.  0.
         25    1    3    3    0    0  0.27460016438E+02  0.35654197810E+01  0.18973865464E+03  0.22894328967E+03  0.12509000000E+03 0.  0.
         25    1    3    3    0    0 -0.37896952860E+02  0.35537201138E+01  0.11942655270E+03  0.17708477504E+03  0.12509000000E+03 0.  0.
<mgrwt>
<rscale>  2 0.41383950E+03</rscale>
<asrwt>0</asrwt>
<pdfrwt beam="1">  1       21 0.10624861E+00 0.41383950E+03</pdfrwt>
<pdfrwt beam="2">  1       21 0.87149077E-02 0.41383950E+03</pdfrwt>
<totfact> 0.68152878E+04</totfact>
</mgrwt>
</event>
<event>
 6    0  0.1785149E-004  0.3927642E+03  0.7546771E-02  0.1046314E+00
         21   -1    0    0  502  501  0.00000000000E+00  0.00000000000E+00  0.25973244456E+03  0.25973244456E+03  0.00000000000E+00 0.  1.
         21   -1    0    0  501  502 -0.00000000000E+00 -0.00000000000E+00 -0.14848329823E+03  0.14848329823E+03  0.00000000000E+00 0.  1.
      99925    2    1    2    0    0 -0.26995766854E+02  0.99245893566E+01  0.75189080105E+02  0.27489243133E+03  0.26284060214E+03 0.  0.
         25    1    1    2    0    0  0.26995766854E+02 -0.99245893566E+01  0.36060066230E+02  0.13332331146E+03  0.12509000000E+03 0.  0.
         25    1    3    3    0    0  0.24988013056E+02  0.81039501949E+01  0.23893657659E+02  0.13003264891E+03  0.12509000000E+03 0.  0.
         25    1    3    3    0    0 -0.51983779911E+02  0.18206391617E+01  0.51295422446E+02  0.14485978243E+03  0.12509000000E+03 0.  0.
<mgrwt>
<rscale>  2 0.39276420E+03</rscale>
<asrwt>0</asrwt>
<pdfrwt beam="1">  1       21 0.38195948E-01 0.39276420E+03</pdfrwt>
<pdfrwt beam="2">  1       21 0.21835779E-01 0.39276420E+03</pdfrwt>
<totfact> 0.12252339E+05</totfact>
</mgrwt>
</event>
<event>
 6    0  0.1539497E-004  0.4376085E+03  0.7546771E-02  0.1031483E+00
         21   -1    0    0  502  501  0.00000000000E+00  0.00000000000E+00  0.61783421801E+02  0.61783421801E+02  0.00000000000E+00 0.  1.
         21   -1    0    0  501  502 -0.00000000000E+00 -0.00000000000E+00 -0.77488927118E+03  0.77488927118E+03  0.00000000000E+00 0.  1.
      99925    2    1    2    0    0 -0.37540421018E+02  0.86475042353E+02 -0.43209537082E+03  0.51495602677E+03  0.26379174335E+03 0.  0.
         25    1    3    3    0    0  0.19773406738E+02  0.35436606819E+02 -0.17473025606E+03  0.21868907425E+03  0.12509000000E+03 0.  0.
         25    1    1    2    0    0  0.37540421018E+02 -0.86475042353E+02 -0.28101047856E+03  0.32171666621E+03  0.12509000000E+03 0.  0.
         25    1    3    3    0    0 -0.57313827756E+02  0.51038435534E+02 -0.25736511477E+03  0.29626695251E+03  0.12509000000E+03 0.  0.
<mgrwt>
<rscale>  2 0.43760855E+03</rscale>
<asrwt>0</asrwt>
<pdfrwt beam="1">  1       21 0.90857975E-02 0.43760855E+03</pdfrwt>
<pdfrwt beam="2">  1       21 0.11395430E+00 0.43760855E+03</pdfrwt>
<totfact> 0.52898206E+04</totfact>
</mgrwt>
</event>
<event>
 6    0  0.1539497E-004  0.4628430E+03  0.7546771E-02  0.1023960E+00
         21   -1    0    0  502  501  0.00000000000E+00  0.00000000000E+00  0.48412546968E+02  0.48412546968E+02  0.00000000000E+00 0. -1.
         21   -1    0    0  501  502 -0.00000000000E+00 -0.00000000000E+00 -0.11062404729E+04  0.11062404729E+04  0.00000000000E+00 0. -1.
      99925    2    1    2    0    0  0.56927865448E+02 -0.49156903818E+02 -0.89585146037E+03  0.93661387991E+03  0.26275185621E+03 0.  0.
         25    1    3    3    0    0 -0.98925917479E+01 -0.21636123140E+02 -0.46904762915E+03  0.48602383862E+03  0.12509000000E+03 0.  0.
         25    1    3    3    0    0  0.66820457196E+02 -0.27520780677E+02 -0.42680383122E+03  0.45059004130E+03  0.12509000000E+03 0.  0.
         25    1    1    2    0    0 -0.56927865448E+02  0.49156903818E+02 -0.16197646557E+03  0.21803913997E+03  0.12509000000E+03 0.  0.
<mgrwt>
<rscale>  2 0.46284304E+03</rscale>
<asrwt>0</asrwt>
<pdfrwt beam="1">  1       21 0.71194925E-02 0.46284304E+03</pdfrwt>
<pdfrwt beam="2">  1       21 0.16268242E+00 0.46284304E+03</pdfrwt>
<totfact> 0.31648234E+04</totfact>
</mgrwt>
</event>
<event>
 6    0  0.1539497E-004  0.4247536E+03  0.7546771E-02  0.1035530E+00
         21   -1    0    0  502  501  0.00000000000E+00  0.00000000000E+00  0.57664231395E+03  0.57664231395E+03  0.00000000000E+00 0. -1.
         21   -1    0    0  501  502 -0.00000000000E+00 -0.00000000000E+00 -0.78218184222E+02  0.78218184222E+02  0.00000000000E+00 0. -1.
      99925    2    1    2    0    0 -0.90043974557E+01 -0.47486054802E+02  0.42463465097E+03  0.50179711310E+03  0.26296340303E+03 0.  0.
         25    1    3    3    0    0 -0.23323004784E+02 -0.44959556683E+01  0.26491420501E+03  0.29392383416E+03  0.12509000000E+03 0.  0.
         25    1    1    2    0    0  0.90043974557E+01  0.47486054802E+02  0.73789478751E+02  0.15306338507E+03  0.12509000000E+03 0.  0.
         25    1    3    3    0    0  0.14318607328E+02 -0.42990099134E+02  0.15972044596E+03  0.20787327894E+03  0.12509000000E+03 0.  0.
<mgrwt>
<rscale>  2 0.42475365E+03</rscale>
<asrwt>0</asrwt>
<pdfrwt beam="1">  1       21 0.84800338E-01 0.42475365E+03</pdfrwt>
<pdfrwt beam="2">  1       21 0.11502674E-01 0.42475365E+03</pdfrwt>
<totfact> 0.70863416E+04</totfact>
</mgrwt>
</event>
<event>
 6    0  0.1539497E-004  0.4235805E+03  0.7546771E-02  0.1035907E+00
         21   -1    0    0  502  501  0.00000000000E+00  0.00000000000E+00  0.15387385482E+03  0.15387385482E+03  0.00000000000E+00 0.  1.
         21   -1    0    0  501  502 -0.00000000000E+00 -0.00000000000E+00 -0.29150566240E+03  0.29150566240E+03  0.00000000000E+00 0.  1.
      99925    2    1    2    0    0  0.49540814166E+02  0.58303654752E+02 -0.63128766542E+02  0.28090514337E+03  0.26280953176E+03 0.  0.
         25    1    3    3    0    0  0.60011192465E+02  0.50912854247E+02 -0.39291416358E+02  0.15292084700E+03  0.12509000000E+03 0.  0.
         25    1    3    3    0    0 -0.10470378300E+02  0.73908005049E+01 -0.23837350183E+02  0.12798429637E+03  0.12509000000E+03 0.  0.
         25    1    1    2    0    0 -0.49540814166E+02 -0.58303654752E+02 -0.74503041039E+02  0.16447437384E+03  0.12509000000E+03 0.  0.
<mgrwt>
<rscale>  2 0.42358045E+03</rscale>
<asrwt>0</asrwt>
<pdfrwt beam="1">  1       21 0.22628508E-01 0.42358045E+03</pdfrwt>
<pdfrwt beam="2">  1       21 0.42868479E-01 0.42358045E+03</pdfrwt>
<totfact> 0.89661742E+04</totfact>
</mgrwt>
</event>
<event>
 6    0  0.1539497E-004  0.4006659E+03  0.7546771E-02  0.1043549E+00
         21   -1    0    0  502  501  0.00000000000E+00  0.00000000000E+00  0.85907393589E+02  0.85907393589E+02  0.00000000000E+00 0.  1.
         21   -1    0    0  501  502 -0.00000000000E+00 -0.00000000000E+00 -0.46716931391E+03  0.46716931391E+03  0.00000000000E+00 0.  1.
      99925    2    1    2    0    0 -0.27740545244E+02  0.38294791199E+02 -0.25185179583E+03  0.36698394218E+03  0.26270108084E+03 0.  0.
         25    1    3    3    0    0 -0.10145011207E+02  0.11593231182E+02 -0.70642534418E+02  0.14448252500E+03  0.12509000000E+03 0.  0.
         25    1    3    3    0    0 -0.17595534036E+02  0.26701560017E+02 -0.18120926141E+03  0.22250141718E+03  0.12509000000E+03 0.  0.
         25    1    1    2    0    0  0.27740545244E+02 -0.38294791199E+02 -0.12941012449E+03  0.18609276532E+03  0.12509000000E+03 0.  0.
<mgrwt>
<rscale>  2 0.40066594E+03</rscale>
<asrwt>0</asrwt>
<pdfrwt beam="1">  1       21 0.12633440E-01 0.40066594E+03</pdfrwt>
<pdfrwt beam="2">  1       21 0.68701369E-01 0.40066594E+03</pdfrwt>
<totfact> 0.97164133E+04</totfact>
</mgrwt>
</event>
<event>
 6    0  0.1539497E-004  0.4753610E+03  0.7546771E-02  0.1020418E+00
         21   -1    0    0  502  501  0.00000000000E+00  0.00000000000E+00  0.62307275836E+02  0.62307275836E+02  0.00000000000E+00 0. -1.
         21   -1    0    0  501  502 -0.00000000000E+00 -0.00000000000E+00 -0.90666821184E+03  0.90666821184E+03  0.00000000000E+00 0. -1.
      99925    2    1    2    0    0 -0.45248362275E+02 -0.36249690375E+02 -0.28203433363E+03  0.38999347571E+03  0.26304009468E+03 0.  0.
         25    1    1    2    0    0  0.45248362275E+02  0.36249690375E+02 -0.56232660238E+03  0.57898201197E+03  0.12509000000E+03 0.  0.
         25    1    3    3    0    0  0.62777604519E+01  0.11415942166E+02 -0.12529269171E+03  0.17752605642E+03  0.12509000000E+03 0.  0.
         25    1    3    3    0    0 -0.51526122727E+02 -0.47665632541E+02 -0.15674164191E+03  0.21246741929E+03  0.12509000000E+03 0.  0.
<mgrwt>
<rscale>  2 0.47536103E+03</rscale>
<asrwt>0</asrwt>
<pdfrwt beam="1">  1       21 0.91628341E-02 0.47536103E+03</pdfrwt>
<pdfrwt beam="2">  1       21 0.13333357E+00 0.47536103E+03</pdfrwt>
<totfact> 0.34544558E+04</totfact>
</mgrwt>
</event>
<event>
 6    0  0.1539497E-004  0.4955442E+03  0.7546771E-02  0.1014949E+00
         21   -1    0    0  502  501  0.00000000000E+00  0.00000000000E+00  0.43641292939E+03  0.43641292939E+03  0.00000000000E+00 0. -1.
         21   -1    0    0  501  502 -0.00000000000E+00 -0.00000000000E+00 -0.14067183082E+03  0.14067183082E+03  0.00000000000E+00 0. -1.
      99925    2    1    2    0    0 -0.27337168836E+01  0.49381690480E+02  0.17633963667E+02  0.26815578593E+03  0.26296491076E+03 0.  0.
         25    1    3    3    0    0 -0.28689209074E+02  0.52754341139E+02  0.20857484881E+02  0.14031619294E+03  0.12509000000E+03 0.  0.
         25    1    3    3    0    0  0.25955492190E+02 -0.33726506585E+01 -0.32235212137E+01  0.12783959299E+03  0.12509000000E+03 0.  0.
         25    1    1    2    0    0  0.27337168836E+01 -0.49381690480E+02  0.27810713490E+03  0.30892897427E+03  0.12509000000E+03 0.  0.
<mgrwt>
<rscale>  2 0.49554417E+03</rscale>
<asrwt>0</asrwt>
<pdfrwt beam="1">  1       21 0.64178372E-01 0.49554417E+03</pdfrwt>
<pdfrwt beam="2">  1       21 0.20687034E-01 0.49554417E+03</pdfrwt>
<totfact> 0.44150213E+04</totfact>
</mgrwt>
</event>
<event>
 6    0  0.1539497E-004  0.4226824E+03  0.7546771E-02  0.1036197E+00
         21   -1    0    0  502  501  0.00000000000E+00  0.00000000000E+00  0.30767423534E+03  0.30767423534E+03  0.00000000000E+00 0.  1.
         21   -1    0    0  501  502 -0.00000000000E+00 -0.00000000000E+00 -0.14517014007E+03  0.14517014007E+03  0.00000000000E+00 0.  1.
      99925    2    1    2    0    0  0.55578977563E+02  0.32611725873E+02  0.56249789116E+02  0.27652071537E+03  0.26295839945E+03 0.  0.
         25    1    3    3    0    0  0.30341626811E+02 -0.20939594835E+02  0.43809571890E+02  0.13757131837E+03  0.12509000000E+03 0.  0.
         25    1    1    2    0    0 -0.55578977563E+02 -0.32611725873E+02  0.10625430615E+03  0.17632366003E+03  0.12509000000E+03 0.  0.
         25    1    3    3    0    0  0.25237350752E+02  0.53551320708E+02  0.12440217226E+02  0.13894939700E+03  0.12509000000E+03 0.  0.
<mgrwt>
<rscale>  2 0.42268244E+03</rscale>
<asrwt>0</asrwt>
<pdfrwt beam="1">  1       21 0.45246211E-01 0.42268244E+03</pdfrwt>
<pdfrwt beam="2">  1       21 0.21348550E-01 0.42268244E+03</pdfrwt>
<totfact> 0.89598461E+04</totfact>
</mgrwt>
</event>
<event>
 6    0  0.1539497E-004  0.4024759E+03  0.7546771E-02  0.1042926E+00
         21   -1    0    0  502  501  0.00000000000E+00  0.00000000000E+00  0.18920055684E+03  0.18920055684E+03  0.00000000000E+00 0. -1.
         21   -1    0    0  501  502 -0.00000000000E+00 -0.00000000000E+00 -0.21404119321E+03  0.21404119321E+03  0.00000000000E+00 0. -1.
      99925    2    1    2    0    0 -0.10337022237E+02  0.55085444390E+01 -0.65284172374E+02  0.27125544093E+03  0.26302146867E+03 0.  0.
         25    1    1    2    0    0  0.10337022237E+02 -0.55085444390E+01  0.40443536002E+02  0.13198630912E+03  0.12509000000E+03 0.  0.
         25    1    3    3    0    0  0.31957706000E+02  0.54765161783E+01 -0.49027306663E+02  0.13821169307E+03  0.12509000000E+03 0.  0.
         25    1    3    3    0    0 -0.42294728237E+02  0.32028260702E-01 -0.16256865711E+02  0.13304374786E+03  0.12509000000E+03 0.  0.
<mgrwt>
<rscale>  2 0.40247590E+03</rscale>
<asrwt>0</asrwt>
<pdfrwt beam="1">  1       21 0.27823611E-01 0.40247590E+03</pdfrwt>
<pdfrwt beam="2">  1       21 0.31476646E-01 0.40247590E+03</pdfrwt>
<totfact> 0.11292754E+05</totfact>
</mgrwt>
</event>
<event>
 6    0  0.1539497E-004  0.3999844E+03  0.7546771E-02  0.1043785E+00
         21   -1    0    0  502  501  0.00000000000E+00  0.00000000000E+00  0.59210413502E+03  0.59210413502E+03  0.00000000000E+00 0.  1.
         21   -1    0    0  501  502 -0.00000000000E+00 -0.00000000000E+00 -0.67550412459E+02  0.67550412459E+02  0.00000000000E+00 0.  1.
      99925    2    1    2    0    0 -0.36536158214E+02 -0.16996451069E+02  0.38395813754E+03  0.46720092493E+03  0.26311420080E+03 0.  0.
         25    1    1    2    0    0  0.36536158214E+02  0.16996451069E+02  0.14059558503E+03  0.19245362256E+03  0.12509000000E+03 0.  0.
         25    1    3    3    0    0 -0.53951462827E+02 -0.23598600924E+02  0.22480634074E+03  0.26391864891E+03  0.12509000000E+03 0.  0.
         25    1    3    3    0    0  0.17415304613E+02  0.66021498547E+01  0.15915179680E+03  0.20328227601E+03  0.12509000000E+03 0.  0.
<mgrwt>
<rscale>  2 0.39998439E+03</rscale>
<asrwt>0</asrwt>
<pdfrwt beam="1">  1       21 0.87074135E-01 0.39998439E+03</pdfrwt>
<pdfrwt beam="2">  1       21 0.99338845E-02 0.39998439E+03</pdfrwt>
<totfact> 0.87258962E+04</totfact>
</mgrwt>
</event>
<event>
 6    0  0.1539497E-004  0.4263347E+03  0.7546771E-02  0.1035024E+00
         21   -1    0    0  502  501  0.00000000000E+00  0.00000000000E+00  0.18327883819E+03  0.18327883819E+03  0.00000000000E+00 0.  1.
         21   -1    0    0  501  502 -0.00000000000E+00 -0.00000000000E+00 -0.24792993235E+03  0.24792993235E+03  0.00000000000E+00 0.  1.
      99925    2    1    2    0    0  0.23245008067E+02 -0.59067568823E+02  0.12722644461E+02  0.27101041970E+03  0.26316434754E+03 0.  0.
         25    1    3    3    0    0 -0.16166924538E+02  0.17431978708E+01  0.50945604972E+01  0.12624528044E+03  0.12509000000E+03 0.  0.
         25    1    3    3    0    0  0.39411932604E+02 -0.60810766694E+02  0.76280839635E+01  0.14476513925E+03  0.12509000000E+03 0.  0.
         25    1    1    2    0    0 -0.23245008067E+02  0.59067568823E+02 -0.77373738612E+02  0.16019835084E+03  0.12509000000E+03 0.  0.
<mgrwt>
<rscale>  2 0.42633466E+03</rscale>
<asrwt>0</asrwt>
<pdfrwt beam="1">  1       21 0.26952770E-01 0.42633466E+03</pdfrwt>
<pdfrwt beam="2">  1       21 0.36460284E-01 0.42633466E+03</pdfrwt>
<totfact> 0.89001295E+04</totfact>
</mgrwt>
</event>
<event>
 6    0  0.1539497E-004  0.4202334E+03  0.7546771E-02  0.1036990E+00
         21   -1    0    0  502  501  0.00000000000E+00  0.00000000000E+00  0.80196981454E+03  0.80196981454E+03  0.00000000000E+00 0. -1.
         21   -1    0    0  501  502 -0.00000000000E+00 -0.00000000000E+00 -0.55050744120E+02  0.55050744120E+02  0.00000000000E+00 0. -1.
      99925    2    1    2    0    0  0.25772023200E+02  0.68520051589E+02  0.52927135358E+03  0.59553015463E+03  0.26299962873E+03 0.  0.
         25    1    1    2    0    0 -0.25772023200E+02 -0.68520051589E+02  0.21764771684E+03  0.26149040402E+03  0.12509000000E+03 0.  0.
         25    1    3    3    0    0  0.14478943079E+02  0.73319799783E+02  0.31596269445E+03  0.34794448583E+03  0.12509000000E+03 0.  0.
         25    1    3    3    0    0  0.11293080121E+02 -0.47997481944E+01  0.21330865912E+03  0.24758566880E+03  0.12509000000E+03 0.  0.
<mgrwt>
<rscale>  2 0.42023344E+03</rscale>
<asrwt>0</asrwt>
<pdfrwt beam="1">  1       21 0.11793673E+00 0.42023344E+03</pdfrwt>
<pdfrwt beam="2">  1       21 0.80956982E-02 0.42023344E+03</pdfrwt>
<totfact> 0.59848252E+04</totfact>
</mgrwt>
</event>
<event>
 6    0  0.1539497E-004  0.3965202E+03  0.7546771E-02  0.1044991E+00
         21   -1    0    0  502  501  0.00000000000E+00  0.00000000000E+00  0.43035293822E+02  0.43035293822E+02  0.00000000000E+00 0. -1.
         21   -1    0    0  501  502 -0.00000000000E+00 -0.00000000000E+00 -0.91336807086E+03  0.91336807086E+03  0.00000000000E+00 0. -1.
      99925    2    1    2    0    0  0.35996751661E+02 -0.96130289541E+01 -0.56147264557E+03  0.62109713842E+03  0.26291053076E+03 0.  0.
         25    1    3    3    0    0  0.93871458588E+01  0.32787748961E+02 -0.30421705422E+03  0.33069423818E+03  0.12509000000E+03 0.  0.
         25    1    1    2    0    0 -0.35996751661E+02  0.96130289541E+01 -0.30886013147E+03  0.33530622626E+03  0.12509000000E+03 0.  0.
         25    1    3    3    0    0  0.26609605803E+02 -0.42400777915E+02 -0.25725559135E+03  0.29040290024E+03  0.12509000000E+03 0.  0.
<mgrwt>
<rscale>  2 0.39652018E+03</rscale>
<asrwt>0</asrwt>
<pdfrwt beam="1">  1       21 0.63287194E-02 0.39652018E+03</pdfrwt>
<pdfrwt beam="2">  1       21 0.13431884E+00 0.39652018E+03</pdfrwt>
<totfact> 0.66459756E+04</totfact>
</mgrwt>
</event>
<event>
 6    0  0.1539497E-004  0.4145005E+03  0.7546771E-02  0.1038871E+00
         21   -1    0    0  502  501  0.00000000000E+00  0.00000000000E+00  0.45430100940E+03  0.45430100940E+03  0.00000000000E+00 0. -1.
         21   -1    0    0  501  502 -0.00000000000E+00 -0.00000000000E+00 -0.94546724114E+02  0.94546724114E+02  0.00000000000E+00 0. -1.
      99925    2    1    2    0    0 -0.18735719561E+02 -0.18255828642E+02  0.15173465126E+03  0.30470847263E+03  0.26294399866E+03 0.  0.
         25    1    3    3    0    0  0.98624120974E+01  0.25810133530E+02  0.82717606087E+02  0.15248980498E+03  0.12509000000E+03 0.  0.
         25    1    1    2    0    0  0.18735719561E+02  0.18255828642E+02  0.20801963403E+03  0.24413926089E+03  0.12509000000E+03 0.  0.
         25    1    3    3    0    0 -0.28598131658E+02 -0.44065962172E+02  0.69017045175E+02  0.15221866765E+03  0.12509000000E+03 0.  0.
<mgrwt>
<rscale>  2 0.41450053E+03</rscale>
<asrwt>0</asrwt>
<pdfrwt beam="1">  1       21 0.66808971E-01 0.41450053E+03</pdfrwt>
<pdfrwt beam="2">  1       21 0.13903930E-01 0.41450053E+03</pdfrwt>
<totfact> 0.86504331E+04</totfact>
</mgrwt>
</event>
<event>
 6    0  0.1539497E-004  0.4198452E+03  0.7546771E-02  0.1037117E+00
         21   -1    0    0  502  501  0.00000000000E+00  0.00000000000E+00  0.24989973349E+03  0.24989973349E+03  0.00000000000E+00 0.  1.
         21   -1    0    0  501  502 -0.00000000000E+00 -0.00000000000E+00 -0.17634068561E+03  0.17634068561E+03  0.00000000000E+00 0.  1.
      99925    2    1    2    0    0  0.60979306500E+02  0.40980566764E+02  0.29411917077E+02  0.27460150612E+03  0.26295064864E+03 0.  0.
         25    1    3    3    0    0 -0.59064423457E+00 -0.76295928273E+01  0.15996350688E+02  0.12634061454E+03  0.12509000000E+03 0.  0.
         25    1    3    3    0    0  0.61569950734E+02  0.48610159591E+02  0.13415566389E+02  0.14826089157E+03  0.12509000000E+03 0.  0.
         25    1    1    2    0    0 -0.60979306500E+02 -0.40980566764E+02  0.44147130802E+02  0.15163891299E+03  0.12509000000E+03 0.  0.
<mgrwt>
<rscale>  2 0.41984516E+03</rscale>
<asrwt>0</asrwt>
<pdfrwt beam="1">  1       21 0.36749961E-01 0.41984516E+03</pdfrwt>
<pdfrwt beam="2">  1       21 0.25932454E-01 0.41984516E+03</pdfrwt>
<totfact> 0.94565995E+04</totfact>
</mgrwt>
</event>
<event>
 6    0  0.1539497E-004  0.4570980E+03  0.7546771E-02  0.1025626E+00
         21   -1    0    0  502  501  0.00000000000E+00  0.00000000000E+00  0.24704435184E+03  0.24704435184E+03  0.00000000000E+00 0.  1.
         21   -1    0    0  501  502 -0.00000000000E+00 -0.00000000000E+00 -0.21143833580E+03  0.21143833580E+03  0.00000000000E+00 0.  1.
      99925    2    1    2    0    0  0.16233223044E+02 -0.42028628415E+02  0.12859370957E+03  0.29623552315E+03  0.26303843806E+03 0.  0.
         25    1    1    2    0    0 -0.16233223044E+02  0.42028628415E+02 -0.92987693528E+02  0.16224716449E+03  0.12509000000E+03 0.  0.
         25    1    3    3    0    0  0.24303459850E+00 -0.60055681813E+02  0.56168574327E+02  0.14969689651E+03  0.12509000000E+03 0.  0.
         25    1    3    3    0    0  0.15990188445E+02  0.18027053398E+02  0.72425135244E+02  0.14653862663E+03  0.12509000000E+03 0.  0.
<mgrwt>
<rscale>  2 0.45709801E+03</rscale>
<asrwt>0</asrwt>
<pdfrwt beam="1">  1       21 0.36330052E-01 0.45709801E+03</pdfrwt>
<pdfrwt beam="2">  1       21 0.31093873E-01 0.45709801E+03</pdfrwt>
<totfact> 0.67160157E+04</totfact>
</mgrwt>
</event>
<event>
 6    0  0.1539497E-004  0.3969391E+03  0.7546771E-02  0.1044845E+00
         21   -1    0    0  502  501  0.00000000000E+00  0.00000000000E+00  0.21026712932E+03  0.21026712932E+03  0.00000000000E+00 0. -1.
         21   -1    0    0  501  502 -0.00000000000E+00 -0.00000000000E+00 -0.18733394059E+03  0.18733394059E+03  0.00000000000E+00 0. -1.
      99925    2    1    2    0    0  0.25638462628E+02  0.28161243172E+02  0.24415141403E+02  0.26683375493E+03  0.26297103882E+03 0.  0.
         25    1    3    3    0    0  0.34567147106E+01  0.53531314887E+02  0.97288152046E+01  0.13645405269E+03  0.12509000000E+03 0.  0.
         25    1    1    2    0    0 -0.25638462628E+02 -0.28161243172E+02 -0.14819526642E+01  0.13076731498E+03  0.12509000000E+03 0.  0.
         25    1    3    3    0    0  0.22181747918E+02 -0.25370071715E+02  0.14686326198E+02  0.13037970224E+03  0.12509000000E+03 0.  0.
<mgrwt>
<rscale>  2 0.39693914E+03</rscale>
<asrwt>0</asrwt>
<pdfrwt beam="1">  1       21 0.30921637E-01 0.39693914E+03</pdfrwt>
<pdfrwt beam="2">  1       21 0.27549109E-01 0.39693914E+03</pdfrwt>
<totfact> 0.11943085E+05</totfact>
</mgrwt>
</event>
<event>
 6    0  0.1539497E-004  0.4071450E+03  0.7546771E-02  0.1041333E+00
         21   -1    0    0  502  501  0.00000000000E+00  0.00000000000E+00  0.29190122450E+02  0.29190122450E+02  0.00000000000E+00 0. -1.
         21   -1    0    0  501  502 -0.00000000000E+00 -0.00000000000E+00 -0.14197187766E+04  0.14197187766E+04  0.00000000000E+00 0. -1.
      99925    2    1    2    0    0  0.91828029218E+01 -0.15017643086E+02 -0.11165083203E+04  0.11471730793E+04  0.26287904261E+03 0.  0.
         25    1    3    3    0    0 -0.11844781931E+02 -0.30971354256E+02 -0.68532173986E+03  0.69743309275E+03  0.12509000000E+03 0.  0.
         25    1    3    3    0    0  0.21027584852E+02  0.15953711171E+02 -0.43118658043E+03  0.44973998651E+03  0.12509000000E+03 0.  0.
         25    1    1    2    0    0 -0.91828029218E+01  0.15017643086E+02 -0.27402033388E+03  0.30173581980E+03  0.12509000000E+03 0.  0.
<mgrwt>
<rscale>  2 0.40714501E+03</rscale>
<asrwt>0</asrwt>
<pdfrwt beam="1">  1       21 0.42926640E-02 0.40714501E+03</pdfrwt>
<pdfrwt beam="2">  1       21 0.20878223E+00 0.40714501E+03</pdfrwt>
<totfact> 0.37030341E+04</totfact>
</mgrwt>
</event>
<event>
 6    0  0.1539497E-004  0.4485873E+03  0.7546771E-02  0.1028144E+00
         21   -1    0    0  502  501  0.00000000000E+00  0.00000000000E+00  0.54561208826E+02  0.54561208826E+02  0.00000000000E+00 0.  1.
         21   -1    0    0  501  502 -0.00000000000E+00 -0.00000000000E+00 -0.92204026052E+03  0.92204026052E+03  0.00000000000E+00 0.  1.
      99925    2    1    2    0    0 -0.87751236382E+02  0.56674665723E+01 -0.41614362339E+03  0.50006859891E+03  0.26298419851E+03 0.  0.
         25    1    1    2    0    0  0.87751236382E+02 -0.56674665723E+01 -0.45133542831E+03  0.47653287044E+03  0.12509000000E+03 0.  0.
         25    1    3    3    0    0 -0.34790324893E+02  0.35217443306E+02 -0.24572771640E+03  0.28014327357E+03  0.12509000000E+03 0.  0.
         25    1    3    3    0    0 -0.52960911489E+02 -0.29549976734E+02 -0.17041590699E+03  0.21992532534E+03  0.12509000000E+03 0.  0.
<mgrwt>
<rscale>  2 0.44858725E+03</rscale>
<asrwt>0</asrwt>
<pdfrwt beam="1">  1       21 0.80237076E-02 0.44858725E+03</pdfrwt>
<pdfrwt beam="2">  1       21 0.13559415E+00 0.44858725E+03</pdfrwt>
<totfact> 0.42155854E+04</totfact>
</mgrwt>
</event>
<event>
 6    0  0.1539497E-004  0.4653720E+03  0.7546771E-02  0.1023235E+00
         21   -1    0    0  502  501  0.00000000000E+00  0.00000000000E+00  0.24267053802E+03  0.24267053802E+03  0.00000000000E+00 0. -1.
         21   -1    0    0  501  502 -0.00000000000E+00 -0.00000000000E+00 -0.22311228265E+03  0.22311228265E+03  0.00000000000E+00 0. -1.
      99925    2    1    2    0    0 -0.12018285312E+03  0.22283695464E+02  0.17569673265E+02  0.29087729238E+03  0.26336367353E+03 0.  0.
         25    1    3    3    0    0 -0.17535184480E+02  0.75672777450E+01  0.21468800893E+02  0.12834782390E+03  0.12509000000E+03 0.  0.
         25    1    3    3    0    0 -0.10264766864E+03  0.14716417719E+02 -0.38991276275E+01  0.16252946848E+03  0.12509000000E+03 0.  0.
         25    1    1    2    0    0  0.12018285312E+03 -0.22283695464E+02  0.19885821052E+01  0.17490552829E+03  0.12509000000E+03 0.  0.
<mgrwt>
<rscale>  2 0.46537201E+03</rscale>
<asrwt>0</asrwt>
<pdfrwt beam="1">  1       21 0.35686844E-01 0.46537201E+03</pdfrwt>
<pdfrwt beam="2">  1       21 0.32810630E-01 0.46537201E+03</pdfrwt>
<totfact> 0.62433933E+04</totfact>
</mgrwt>
</event>
<event>
 6    0  0.1539497E-004  0.4015672E+03  0.7546771E-02  0.1043238E+00
         21   -1    0    0  502  501  0.00000000000E+00  0.00000000000E+00  0.56649918561E+03  0.56649918561E+03  0.00000000000E+00 0.  1.
         21   -1    0    0  501  502 -0.00000000000E+00 -0.00000000000E+00 -0.71163467294E+02  0.71163467294E+02  0.00000000000E+00 0.  1.
      99925    2    1    2    0    0  0.18952562102E+02 -0.29839460315E+02  0.38250348972E+03  0.46553417498E+03  0.26298964890E+03 0.  0.
         25    1    3    3    0    0 -0.23116022634E+02 -0.33903025589E+02  0.16490465163E+03  0.21100904690E+03  0.12509000000E+03 0.  0.
         25    1    1    2    0    0 -0.18952562102E+02  0.29839460315E+02  0.11283222860E+03  0.17212847793E+03  0.12509000000E+03 0.  0.
         25    1    3    3    0    0  0.42068584736E+02  0.40635652744E+01  0.21759883809E+03  0.25452512808E+03  0.12509000000E+03 0.  0.
<mgrwt>
<rscale>  2 0.40156716E+03</rscale>
<asrwt>0</asrwt>
<pdfrwt beam="1">  1       21 0.83308702E-01 0.40156716E+03</pdfrwt>
<pdfrwt beam="2">  1       21 0.10465216E-01 0.40156716E+03</pdfrwt>
<totfact> 0.88063915E+04</totfact>
</mgrwt>
</event>
<event>
 6    0  0.1539497E-004  0.3989123E+03  0.7546771E-02  0.1044157E+00
         21   -1    0    0  502  501  0.00000000000E+00  0.00000000000E+00  0.16786078417E+04  0.16786078417E+04  0.00000000000E+00 0. -1.
         21   -1    0    0  501  502 -0.00000000000E+00 -0.00000000000E+00 -0.23699846885E+02  0.23699846885E+02  0.00000000000E+00 0. -1.
      99925    2    1    2    0    0  0.17557958688E+02 -0.94775580949E+01  0.12781580827E+04  0.13048330222E+04  0.26173082640E+03 0.  0.
         25    1    3    3    0    0 -0.28022440698E+02  0.62144329158E+01  0.64245401694E+03  0.65514773016E+03  0.12509000000E+03 0.  0.
         25    1    1    2    0    0 -0.17557958688E+02  0.94775580949E+01  0.37674991209E+03  0.39747466634E+03  0.12509000000E+03 0.  0.
         25    1    3    3    0    0  0.45580399386E+02 -0.15691991011E+02  0.63570406577E+03  0.64968529207E+03  0.12509000000E+03 0.  0.
<mgrwt>
<rscale>  2 0.39891227E+03</rscale>
<asrwt>0</asrwt>
<pdfrwt beam="1">  1       21 0.24685402E+00 0.39891227E+03</pdfrwt>
<pdfrwt beam="2">  1       21 0.34852727E-02 0.39891227E+03</pdfrwt>
<totfact> 0.30484234E+04</totfact>
</mgrwt>
</event>
<event>
 6    0  0.1539497E-004  0.4008601E+03  0.7546771E-02  0.1043482E+00
         21   -1    0    0  502  501  0.00000000000E+00  0.00000000000E+00  0.18130998956E+04  0.18130998956E+04  0.00000000000E+00 0. -1.
         21   -1    0    0  501  502 -0.00000000000E+00 -0.00000000000E+00 -0.22156639975E+02  0.22156639975E+02  0.00000000000E+00 0. -1.
      99925    2    1    2    0    0  0.26713556364E+02  0.31489724517E+02  0.12986238825E+04  0.13256183403E+04  0.26293493312E+03 0.  0.
         25    1    3    3    0    0 -0.77815166593E+01 -0.17965994256E+02  0.57217980835E+03  0.58602096390E+03  0.12509000000E+03 0.  0.
         25    1    1    2    0    0 -0.26713556364E+02 -0.31489724517E+02  0.49231937313E+03  0.50963819530E+03  0.12509000000E+03 0.  0.
         25    1    3    3    0    0  0.34495073023E+02  0.49455718773E+02  0.72644407415E+03  0.73959737638E+03  0.12509000000E+03 0.  0.
<mgrwt>
<rscale>  2 0.40086008E+03</rscale>
<asrwt>0</asrwt>
<pdfrwt beam="1">  1       21 0.26663224E+00 0.40086008E+03</pdfrwt>
<pdfrwt beam="2">  1       21 0.32583306E-02 0.40086008E+03</pdfrwt>
<totfact> 0.25879326E+04</totfact>
</mgrwt>
</event>
<event>
 6    0  0.1539497E-004  0.4322964E+03  0.7546771E-02  0.1033137E+00
         21   -1    0    0  502  501  0.00000000000E+00  0.00000000000E+00  0.87036903155E+03  0.87036903155E+03  0.00000000000E+00 0. -1.
         21   -1    0    0  501  502 -0.00000000000E+00 -0.00000000000E+00 -0.53678438097E+02  0.53678438097E+02  0.00000000000E+00 0. -1.
      99925    2    1    2    0    0 -0.29790821249E+02  0.28016647622E+02  0.35371115947E+03  0.44272648531E+03  0.26310213014E+03 0.  0.
         25    1    1    2    0    0  0.29790821249E+02 -0.28016647622E+02  0.46297943399E+03  0.48132098434E+03  0.12509000000E+03 0.  0.
         25    1    3    3    0    0 -0.13769158294E+02  0.42613165040E+02  0.22907767558E+03  0.26481986539E+03  0.12509000000E+03 0.  0.
         25    1    3    3    0    0 -0.16021662955E+02 -0.14596517418E+02  0.12463348389E+03  0.17790661992E+03  0.12509000000E+03 0.  0.
<mgrwt>
<rscale>  2 0.43229643E+03</rscale>
<asrwt>0</asrwt>
<pdfrwt beam="1">  1       21 0.12799544E+00 0.43229643E+03</pdfrwt>
<pdfrwt beam="2">  1       21 0.78938885E-02 0.43229643E+03</pdfrwt>
<totfact> 0.50618899E+04</totfact>
</mgrwt>
</event>
<event>
 6    0  0.1539497E-004  0.3906553E+03  0.7546771E-02  0.1047064E+00
         21   -1    0    0  502  501  0.00000000000E+00  0.00000000000E+00  0.27875094042E+03  0.27875094042E+03  0.00000000000E+00 0. -1.
         21   -1    0    0  501  502 -0.00000000000E+00 -0.00000000000E+00 -0.13687087626E+03  0.13687087626E+03  0.00000000000E+00 0. -1.
      99925    2    1    2    0    0  0.70208154676E+01  0.22011192857E+02  0.92378248217E+02  0.27912374951E+03  0.26237862400E+03 0.  0.
         25    1    1    2    0    0 -0.70208154676E+01 -0.22011192857E+02  0.49501815939E+02  0.13649806717E+03  0.12509000000E+03 0.  0.
         25    1    3    3    0    0  0.31932018188E+02  0.33175385528E+02  0.64538637227E+02  0.14809795335E+03  0.12509000000E+03 0.  0.
         25    1    3    3    0    0 -0.24911202720E+02 -0.11164192671E+02  0.27839610990E+02  0.13102579616E+03  0.12509000000E+03 0.  0.
<mgrwt>
<rscale>  2 0.39065527E+03</rscale>
<asrwt>0</asrwt>
<pdfrwt beam="1">  1       21 0.40992785E-01 0.39065527E+03</pdfrwt>
<pdfrwt beam="2">  1       21 0.20128070E-01 0.39065527E+03</pdfrwt>
<totfact> 0.12384873E+05</totfact>
</mgrwt>
</event>
<event>
 6    0  0.1539497E-004  0.5357397E+03  0.7546771E-02  0.1004850E+00
         21   -1    0    0  502  501  0.00000000000E+00  0.00000000000E+00  0.10638720262E+04  0.10638720262E+04  0.00000000000E+00 0. -1.
         21   -1    0    0  501  502 -0.00000000000E+00 -0.00000000000E+00 -0.67446326484E+02  0.67446326484E+02  0.00000000000E+00 0. -1.
      99925    2    1    2    0    0 -0.13329493116E+03  0.22483530265E+02  0.34430737442E+03  0.45369097271E+03  0.26270683819E+03 0.  0.
         25    1    1    2    0    0  0.13329493116E+03 -0.22483530265E+02  0.65211832532E+03  0.67762738000E+03  0.12509000000E+03 0.  0.
         25    1    3    3    0    0 -0.83891212309E+02 -0.19587513512E+02  0.14823994668E+03  0.21223570878E+03  0.12509000000E+03 0.  0.
         25    1    3    3    0    0 -0.49403718848E+02  0.42071043778E+02  0.19606742774E+03  0.24145526393E+03  0.12509000000E+03 0.  0.
<mgrwt>
<rscale>  2 0.53573971E+03</rscale>
<asrwt>0</asrwt>
<pdfrwt beam="1">  1       21 0.15645176E+00 0.53573971E+03</pdfrwt>
<pdfrwt beam="2">  1       21 0.99185781E-02 0.53573971E+03</pdfrwt>
<totfact> 0.19184537E+04</totfact>
</mgrwt>
</event>
<event>
 6    0  0.1539497E-004  0.4733606E+03  0.7546771E-02  0.1020976E+00
         21   -1    0    0  502  501  0.00000000000E+00  0.00000000000E+00  0.40681382286E+03  0.40681382286E+03  0.00000000000E+00 0.  1.
         21   -1    0    0  501  502 -0.00000000000E+00 -0.00000000000E+00 -0.13769826807E+03  0.13769826807E+03  0.00000000000E+00 0.  1.
      99925    2    1    2    0    0  0.31798930789E+02  0.12359499905E+03  0.19300614420E+03  0.35027757734E+03  0.26297550019E+03 0.  0.
         25    1    3    3    0    0  0.74996353957E+01  0.10447517561E+03  0.11567881268E+03  0.20000100663E+03  0.12509000000E+03 0.  0.
         25    1    3    3    0    0  0.24299295393E+02  0.19119823443E+02  0.77327331521E+02  0.15027657071E+03  0.12509000000E+03 0.  0.
         25    1    1    2    0    0 -0.31798930789E+02 -0.12359499905E+03  0.76109410583E+02  0.19423451359E+03  0.12509000000E+03 0.  0.
<mgrwt>
<rscale>  2 0.47336058E+03</rscale>
<asrwt>0</asrwt>
<pdfrwt beam="1">  1       21 0.59825562E-01 0.47336058E+03</pdfrwt>
<pdfrwt beam="2">  1       21 0.20249745E-01 0.47336058E+03</pdfrwt>
<totfact> 0.53946846E+04</totfact>
</mgrwt>
</event>
<event>
 6    0  0.1539497E-004  0.4489341E+03  0.7546771E-02  0.1028040E+00
         21   -1    0    0  502  501  0.00000000000E+00  0.00000000000E+00  0.44333114487E+03  0.44333114487E+03  0.00000000000E+00 0.  1.
         21   -1    0    0  501  502 -0.00000000000E+00 -0.00000000000E+00 -0.11365196694E+03  0.11365196694E+03  0.00000000000E+00 0.  1.
      99925    2    1    2    0    0 -0.30251752882E+02 -0.31409204990E+02  0.86770853260E+02  0.28029977475E+03  0.26293930105E+03 0.  0.
         25    1    3    3    0    0  0.22835968088E+02 -0.29501236327E+02  0.38792331949E+02  0.13617693454E+03  0.12509000000E+03 0.  0.
         25    1    1    2    0    0  0.30251752882E+02  0.31409204990E+02  0.24290832467E+03  0.27668333706E+03  0.12509000000E+03 0.  0.
         25    1    3    3    0    0 -0.53087720971E+02 -0.19079686624E+01  0.47978521311E+02  0.14412284021E+03  0.12509000000E+03 0.  0.
<mgrwt>
<rscale>  2 0.44893410E+03</rscale>
<asrwt>0</asrwt>
<pdfrwt beam="1">  1       21 0.65195756E-01 0.44893410E+03</pdfrwt>
<pdfrwt beam="2">  1       21 0.16713525E-01 0.44893410E+03</pdfrwt>
<totfact> 0.64444472E+04</totfact>
</mgrwt>
</event>
<event>
 6    0  0.1539497E-004  0.1448696E+04  0.7546771E-02  0.8919305E-01
         21   -1    0    0  502  501  0.00000000000E+00  0.00000000000E+00  0.66449537785E+03  0.66449537785E+03  0.00000000000E+00 0.  1.
         21   -1    0    0  501  502 -0.00000000000E+00 -0.00000000000E+00 -0.78959159824E+03  0.78959159824E+03  0.00000000000E+00 0.  1.
      99925    2    1    2    0    0 -0.62421501917E+03  0.11645758909E+03 -0.34678127734E+03  0.76998279338E+03  0.26345680398E+03 0.  0.
         25    1    3    3    0    0 -0.39738198346E+03  0.84403493106E+02 -0.23842849290E+03  0.48737259335E+03  0.12509000000E+03 0.  0.
         25    1    1    2    0    0  0.62421501917E+03 -0.11645758909E+03  0.22168505695E+03  0.68410418271E+03  0.12509000000E+03 0.  0.
         25    1    3    3    0    0 -0.22683303572E+03  0.32054095988E+02 -0.10835278444E+03  0.28261020002E+03  0.12509000000E+03 0.  0.
<mgrwt>
<rscale>  2 0.14486959E+04</rscale>
<asrwt>0</asrwt>
<pdfrwt beam="1">  1       21 0.97719909E-01 0.14486959E+04</pdfrwt>
<pdfrwt beam="2">  1       21 0.11611641E+00 0.14486959E+04</pdfrwt>
<totfact> 0.32717716E+02</totfact>
</mgrwt>
</event>
<event>
 6    0  0.1539497E-004  0.4375568E+03  0.7546771E-02  0.1031499E+00
         21   -1    0    0  502  501  0.00000000000E+00  0.00000000000E+00  0.43512363797E+03  0.43512363797E+03  0.00000000000E+00 0. -1.
         21   -1    0    0  501  502 -0.00000000000E+00 -0.00000000000E+00 -0.11000091284E+03  0.11000091284E+03  0.00000000000E+00 0. -1.
      99925    2    1    2    0    0  0.41821880228E+02  0.20568604478E+02  0.10350539420E+03  0.28640870935E+03  0.26295331337E+03 0.  0.
         25    1    3    3    0    0  0.12213793807E+02 -0.16517484320E+02  0.19039793754E+02  0.12818746387E+03  0.12509000000E+03 0.  0.
         25    1    1    2    0    0 -0.41821880228E+02 -0.20568604478E+02  0.22161733093E+03  0.25871584146E+03  0.12509000000E+03 0.  0.
         25    1    3    3    0    0  0.29608086421E+02  0.37086088798E+02  0.84465600445E+02  0.15822124548E+03  0.12509000000E+03 0.  0.
<mgrwt>
<rscale>  2 0.43755684E+03</rscale>
<asrwt>0</asrwt>
<pdfrwt beam="1">  1       21 0.63988770E-01 0.43755684E+03</pdfrwt>
<pdfrwt beam="2">  1       21 0.16176605E-01 0.43755684E+03</pdfrwt>
<totfact> 0.71568122E+04</totfact>
</mgrwt>
</event>
<event>
 6    0  0.1539497E-004  0.4718815E+03  0.7546771E-02  0.1021391E+00
         21   -1    0    0  502  501  0.00000000000E+00  0.00000000000E+00  0.45919006780E+03  0.45919006780E+03  0.00000000000E+00 0.  1.
         21   -1    0    0  501  502 -0.00000000000E+00 -0.00000000000E+00 -0.12123091587E+03  0.12123091587E+03  0.00000000000E+00 0.  1.
      99925    2    1    2    0    0  0.10663791565E+03  0.68903339221E+02  0.18632254282E+03  0.34641140152E+03  0.26299325834E+03 0.  0.
         25    1    3    3    0    0  0.66683834142E+02  0.30839320576E+02  0.50276298762E+02  0.15353505055E+03  0.12509000000E+03 0.  0.
         25    1    1    2    0    0 -0.10663791565E+03 -0.68903339221E+02  0.15163660911E+03  0.23400958214E+03  0.12509000000E+03 0.  0.
         25    1    3    3    0    0  0.39954081509E+02  0.38064018645E+02  0.13604624405E+03  0.19287635098E+03  0.12509000000E+03 0.  0.
<mgrwt>
<rscale>  2 0.47188148E+03</rscale>
<asrwt>0</asrwt>
<pdfrwt beam="1">  1       21 0.67527950E-01 0.47188148E+03</pdfrwt>
<pdfrwt beam="2">  1       21 0.17828076E-01 0.47188148E+03</pdfrwt>
<totfact> 0.52529877E+04</totfact>
</mgrwt>
</event>
<event>
 6    0  0.1539497E-004  0.4178305E+03  0.7546771E-02  0.1037775E+00
         21   -1    0    0  502  501  0.00000000000E+00  0.00000000000E+00  0.13424418862E+03  0.13424418862E+03  0.00000000000E+00 0. -1.
         21   -1    0    0  501  502 -0.00000000000E+00 -0.00000000000E+00 -0.32512081616E+03  0.32512081616E+03  0.00000000000E+00 0. -1.
      99925    2    1    2    0    0  0.19634580448E+02 -0.58261524528E+02 -0.16838693975E+03  0.31817996256E+03  0.26287716733E+03 0.  0.
         25    1    1    2    0    0 -0.19634580448E+02  0.58261524528E+02 -0.22489687787E+02  0.14118504222E+03  0.12509000000E+03 0.  0.
         25    1    3    3    0    0 -0.30114784879E+02 -0.21830373483E+02 -0.82449806069E+02  0.15436626605E+03  0.12509000000E+03 0.  0.
         25    1    3    3    0    0  0.49749365327E+02 -0.36431151045E+02 -0.85937133684E+02  0.16381369651E+03  0.12509000000E+03 0.  0.
<mgrwt>
<rscale>  2 0.41783049E+03</rscale>
<asrwt>0</asrwt>
<pdfrwt beam="1">  1       21 0.19741793E-01 0.41783049E+03</pdfrwt>
<pdfrwt beam="2">  1       21 0.47811884E-01 0.41783049E+03</pdfrwt>
<totfact> 0.92712848E+04</totfact>
</mgrwt>
</event>
<event>
 6    0  0.1539497E-004  0.4131951E+03  0.7546771E-02  0.1039304E+00
         21   -1    0    0  502  501  0.00000000000E+00  0.00000000000E+00  0.14505198644E+02  0.14505198644E+02  0.00000000000E+00 0. -1.
         21   -1    0    0  501  502 -0.00000000000E+00 -0.00000000000E+00 -0.29425693679E+04  0.29425693679E+04  0.00000000000E+00 0. -1.
      99925    2    1    2    0    0  0.10304214438E+01 -0.64972180403E+02 -0.20011983456E+04  0.20195511220E+04  0.26376025053E+03 0.  0.
         25    1    3    3    0    0 -0.20445586862E+02  0.28709384296E+01 -0.85351999517E+03  0.86288478638E+03  0.12509000000E+03 0.  0.
         25    1    1    2    0    0 -0.10304214438E+01  0.64972180403E+02 -0.92686582368E+03  0.93752344461E+03  0.12509000000E+03 0.  0.
         25    1    3    3    0    0  0.21476008306E+02 -0.67843118832E+02 -0.11476783504E+04  0.11566663356E+04  0.12509000000E+03 0.  0.
<mgrwt>
<rscale>  2 0.41319513E+03</rscale>
<asrwt>0</asrwt>
<pdfrwt beam="1">  1       21 0.21331175E-02 0.41319513E+03</pdfrwt>
<pdfrwt beam="2">  1       21 0.43273078E+00 0.41319513E+03</pdfrwt>
<totfact> 0.49048491E+03</totfact>
</mgrwt>
</event>
<event>
 6    0  0.1539497E-004  0.4492356E+03  0.7546771E-02  0.1027950E+00
         21   -1    0    0  502  501  0.00000000000E+00  0.00000000000E+00  0.94491459340E+03  0.94491459340E+03  0.00000000000E+00 0. -1.
         21   -1    0    0  501  502 -0.00000000000E+00 -0.00000000000E+00 -0.53394411475E+02  0.53394411475E+02  0.00000000000E+00 0. -1.
      99925    2    1    2    0    0  0.56908969894E+01  0.13944493367E+02  0.32712587466E+03  0.42002250376E+03  0.26302230055E+03 0.  0.
         25    1    3    3    0    0  0.18386445870E+02 -0.43442911829E+01  0.10623781007E+03  0.16519962060E+03  0.12509000000E+03 0.  0.
         25    1    3    3    0    0 -0.12695548881E+02  0.18288784550E+02  0.22088806460E+03  0.25482288316E+03  0.12509000000E+03 0.  0.
         25    1    1    2    0    0 -0.56908969894E+01 -0.13944493367E+02  0.56439430726E+03  0.57828650112E+03  0.12509000000E+03 0.  0.
<mgrwt>
<rscale>  2 0.44923561E+03</rscale>
<asrwt>0</asrwt>
<pdfrwt beam="1">  1       21 0.13895802E+00 0.44923561E+03</pdfrwt>
<pdfrwt beam="2">  1       21 0.78521199E-02 0.44923561E+03</pdfrwt>
<totfact> 0.41049760E+04</totfact>
</mgrwt>
</event>
<event>
 5    0  0.1539497E-004  0.1159876E+04  0.7546771E-02  0.9148721E-01
         21   -1    0    0  502  501  0.00000000000E+00  0.00000000000E+00  0.17858512489E+04  0.17858512489E+04  0.00000000000E+00 0.  1.
         21   -1    0    0  501  502 -0.00000000000E+00 -0.00000000000E+00 -0.18832913753E+03  0.18832913753E+03  0.00000000000E+00 0.  1.
         25    1    1    2    0    0 -0.20438771612E+03 -0.36747934908E+02  0.70060165193E+02  0.25235032013E+03  0.12509000000E+03 0.  0.
         25    1    1    2    0    0  0.36175803240E+03  0.97313457042E+01  0.14579831637E+04  0.15074236256E+04  0.12509000000E+03 0.  0.
         25    1    1    2    0    0 -0.15737031627E+03  0.27016589203E+02  0.69478782499E+02  0.21440644079E+03  0.12509000000E+03 0.  0.
<mgrwt>
<rscale>  2 0.11598756E+04</rscale>
<asrwt>0</asrwt>
<pdfrwt beam="1">  1       21 0.26262517E+00 0.11598756E+04</pdfrwt>
<pdfrwt beam="2">  1       21 0.27695462E-01 0.11598756E+04</pdfrwt>
<totfact> 0.45397659E+02</totfact>
</mgrwt>
</event>
<event>
 6    0  0.1539497E-004  0.4628036E+03  0.7546771E-02  0.1023971E+00
         21   -1    0    0  502  501  0.00000000000E+00  0.00000000000E+00  0.21694375728E+03  0.21694375728E+03  0.00000000000E+00 0. -1.
         21   -1    0    0  501  502 -0.00000000000E+00 -0.00000000000E+00 -0.24682336657E+03  0.24682336657E+03  0.00000000000E+00 0. -1.
      99925    2    1    2    0    0  0.77649628515E+02  0.68578108367E+02  0.42766635278E+02  0.28584183979E+03  0.26295275341E+03 0.  0.
         25    1    1    2    0    0 -0.77649628515E+02 -0.68578108367E+02 -0.72646244568E+02  0.17792528405E+03  0.12509000000E+03 0.  0.
         25    1    3    3    0    0  0.39614036035E+02  0.41766734870E+01  0.48582551826E+02  0.13998031610E+03  0.12509000000E+03 0.  0.
         25    1    3    3    0    0  0.38035592480E+02  0.64401434880E+02 -0.58159165480E+01  0.14586152370E+03  0.12509000000E+03 0.  0.
<mgrwt>
<rscale>  2 0.46280358E+03</rscale>
<asrwt>0</asrwt>
<pdfrwt beam="1">  1       21 0.31903494E-01 0.46280358E+03</pdfrwt>
<pdfrwt beam="2">  1       21 0.36297554E-01 0.46280358E+03</pdfrwt>
<totfact> 0.63839840E+04</totfact>
</mgrwt>
</event>
<event>
 6    0  0.1539497E-004  0.4325902E+03  0.7546771E-02  0.1033045E+00
         21   -1    0    0  502  501  0.00000000000E+00  0.00000000000E+00  0.23523806090E+03  0.23523806090E+03  0.00000000000E+00 0. -1.
         21   -1    0    0  501  502 -0.00000000000E+00 -0.00000000000E+00 -0.19887755505E+03  0.19887755505E+03  0.00000000000E+00 0. -1.
      99925    2    1    2    0    0  0.70618046375E+02  0.53730291392E+02  0.51752157118E+01  0.27761039845E+03  0.26299600336E+03 0.  0.
         25    1    3    3    0    0  0.10734260662E+02  0.50507312674E+02  0.24563674404E+02  0.13753943139E+03  0.12509000000E+03 0.  0.
         25    1    1    2    0    0 -0.70618046375E+02 -0.53730291392E+02  0.31185290141E+02  0.15650521751E+03  0.12509000000E+03 0.  0.
         25    1    3    3    0    0  0.59883785712E+02  0.32229787180E+01 -0.19388458692E+02  0.14007096706E+03  0.12509000000E+03 0.  0.
<mgrwt>
<rscale>  2 0.43259020E+03</rscale>
<asrwt>0</asrwt>
<pdfrwt beam="1">  1       21 0.34593833E-01 0.43259020E+03</pdfrwt>
<pdfrwt beam="2">  1       21 0.29246699E-01 0.43259020E+03</pdfrwt>
<totfact> 0.84177493E+04</totfact>
</mgrwt>
</event>
<event>
 6    0  0.1539497E-004  0.4549907E+03  0.7546771E-02  0.1026244E+00
         21   -1    0    0  502  501  0.00000000000E+00  0.00000000000E+00  0.56006321527E+02  0.56006321527E+02  0.00000000000E+00 0. -1.
         21   -1    0    0  501  502 -0.00000000000E+00 -0.00000000000E+00 -0.92407649501E+03  0.92407649501E+03  0.00000000000E+00 0. -1.
      99925    2    1    2    0    0  0.82454961290E+02  0.27634585226E+02 -0.70229060857E+03  0.75493205996E+03  0.26295974090E+03 0.  0.
         25    1    1    2    0    0 -0.82454961290E+02 -0.27634585226E+02 -0.16577956491E+03  0.22515075657E+03  0.12509000000E+03 0.  0.
         25    1    3    3    0    0  0.63369789245E+02  0.48370158742E+02 -0.35619416330E+03  0.38584607361E+03  0.12509000000E+03 0.  0.
         25    1    3    3    0    0  0.19085172044E+02 -0.20735573516E+02 -0.34609644526E+03  0.36908598636E+03  0.12509000000E+03 0.  0.
<mgrwt>
<rscale>  2 0.45499066E+03</rscale>
<asrwt>0</asrwt>
<pdfrwt beam="1">  1       21 0.82362253E-02 0.45499066E+03</pdfrwt>
<pdfrwt beam="2">  1       21 0.13589358E+00 0.45499066E+03</pdfrwt>
<totfact> 0.39948865E+04</totfact>
</mgrwt>
</event>
<event>
 6    0  0.1539497E-004  0.4723057E+03  0.7546771E-02  0.1021271E+00
         21   -1    0    0  502  501  0.00000000000E+00  0.00000000000E+00  0.26802900634E+03  0.26802900634E+03  0.00000000000E+00 0. -1.
         21   -1    0    0  501  502 -0.00000000000E+00 -0.00000000000E+00 -0.20806764022E+03  0.20806764022E+03  0.00000000000E+00 0. -1.
      99925    2    1    2    0    0 -0.69980836411E+02 -0.10613191436E+03  0.57002799035E+02  0.29772186715E+03  0.26311155500E+03 0.  0.
         25    1    3    3    0    0  0.39331887612E+00 -0.60614075649E+02  0.47330032994E+02  0.14683957569E+03  0.12509000000E+03 0.  0.
         25    1    3    3    0    0 -0.70374155287E+02 -0.45517838708E+02  0.96727660407E+01  0.15088229146E+03  0.12509000000E+03 0.  0.
         25    1    1    2    0    0  0.69980836411E+02  0.10613191436E+03  0.29585670825E+01  0.17837477941E+03  0.12509000000E+03 0.  0.
<mgrwt>
<rscale>  2 0.47230568E+03</rscale>
<asrwt>0</asrwt>
<pdfrwt beam="1">  1       21 0.39416030E-01 0.47230568E+03</pdfrwt>
<pdfrwt beam="2">  1       21 0.30598182E-01 0.47230568E+03</pdfrwt>
<totfact> 0.58519908E+04</totfact>
</mgrwt>
</event>
<event>
 6    0  0.1539497E-004  0.4280172E+03  0.7546771E-02  0.1034488E+00
         21   -1    0    0  502  501  0.00000000000E+00  0.00000000000E+00  0.18611201003E+02  0.18611201003E+02  0.00000000000E+00 0. -1.
         21   -1    0    0  501  502 -0.00000000000E+00 -0.00000000000E+00 -0.24608663991E+04  0.24608663991E+04  0.00000000000E+00 0. -1.
      99925    2    1    2    0    0 -0.78117195831E+02  0.20842304826E+02 -0.17363163966E+04  0.17579973180E+04  0.26310310320E+03 0.  0.
         25    1    3    3    0    0 -0.44793103674E+02  0.50796093861E+02 -0.92422271656E+03  0.93510523643E+03  0.12509000000E+03 0.  0.
         25    1    1    2    0    0  0.78117195831E+02 -0.20842304826E+02 -0.70593880147E+03  0.72148028211E+03  0.12509000000E+03 0.  0.
         25    1    3    3    0    0 -0.33324092156E+02 -0.29953789035E+02 -0.81209368007E+03  0.82289208157E+03  0.12509000000E+03 0.  0.
<mgrwt>
<rscale>  2 0.42801719E+03</rscale>
<asrwt>0</asrwt>
<pdfrwt beam="1">  1       21 0.27369401E-02 0.42801719E+03</pdfrwt>
<pdfrwt beam="2">  1       21 0.36189228E+00 0.42801719E+03</pdfrwt>
<totfact> 0.91101428E+03</totfact>
</mgrwt>
</event>
<event>
 6    0  0.1539497E-004  0.4607481E+03  0.7546771E-02  0.1024564E+00
         21   -1    0    0  502  501  0.00000000000E+00  0.00000000000E+00  0.88835042913E+03  0.88835042913E+03  0.00000000000E+00 0. -1.
         21   -1    0    0  501  502 -0.00000000000E+00 -0.00000000000E+00 -0.59742424882E+02  0.59742424882E+02  0.00000000000E+00 0. -1.
      99925    2    1    2    0    0  0.11253368797E+03 -0.20009580967E+02  0.45227898485E+03  0.53537593747E+03  0.26269164438E+03 0.  0.
         25    1    3    3    0    0  0.58981124672E+02  0.19365536080E+02  0.27525607323E+03  0.30865386925E+03  0.12509000000E+03 0.  0.
         25    1    3    3    0    0  0.53552563298E+02 -0.39375117046E+02  0.17702291163E+03  0.22672206822E+03  0.12509000000E+03 0.  0.
         25    1    1    2    0    0 -0.11253368797E+03  0.20009580967E+02  0.37632901939E+03  0.41271691653E+03  0.12509000000E+03 0.  0.
<mgrwt>
<rscale>  2 0.46074813E+03</rscale>
<asrwt>0</asrwt>
<pdfrwt beam="1">  1       21 0.13063976E+00 0.46074813E+03</pdfrwt>
<pdfrwt beam="2">  1       21 0.87856513E-02 0.46074813E+03</pdfrwt>
<totfact> 0.39416285E+04</totfact>
</mgrwt>
</event>
<event>
 6    0  0.1539497E-004  0.3888234E+03  0.7546771E-02  0.1047720E+00
         21   -1    0    0  502  501  0.00000000000E+00  0.00000000000E+00  0.90914393829E+02  0.90914393829E+02  0.00000000000E+00 0.  1.
         21   -1    0    0  501  502 -0.00000000000E+00 -0.00000000000E+00 -0.41573079167E+03  0.41573079167E+03  0.00000000000E+00 0.  1.
      99925    2    1    2    0    0  0.37227026326E+01 -0.74409794485E+01 -0.21022373587E+03  0.33679756860E+03  0.26300067756E+03 0.  0.
         25    1    3    3    0    0  0.20974242666E+02 -0.33210045031E+02 -0.13194645162E+03  0.18601129036E+03  0.12509000000E+03 0.  0.
         25    1    3    3    0    0 -0.17251540033E+02  0.25769065583E+02 -0.78277284250E+02  0.15078627824E+03  0.12509000000E+03 0.  0.
         25    1    1    2    0    0 -0.37227026326E+01  0.74409794485E+01 -0.11459266197E+03  0.16984761690E+03  0.12509000000E+03 0.  0.
<mgrwt>
<rscale>  2 0.38882342E+03</rscale>
<asrwt>0</asrwt>
<pdfrwt beam="1">  1       21 0.13369764E-01 0.38882342E+03</pdfrwt>
<pdfrwt beam="2">  1       21 0.61136881E-01 0.38882342E+03</pdfrwt>
<totfact> 0.11370808E+05</totfact>
</mgrwt>
</event>
<event>
 6    0  0.1539497E-004  0.4171912E+03  0.7546771E-02  0.1037984E+00
         21   -1    0    0  502  501  0.00000000000E+00  0.00000000000E+00  0.48592905241E+02  0.48592905241E+02  0.00000000000E+00 0. -1.
         21   -1    0    0  501  502 -0.00000000000E+00 -0.00000000000E+00 -0.89544174037E+03  0.89544174037E+03  0.00000000000E+00 0. -1.
      99925    2    1    2    0    0 -0.27173018107E+02 -0.17612956426E+02 -0.40759527873E+03  0.48617027262E+03  0.26301907457E+03 0.  0.
         25    1    3    3    0    0  0.48654725177E+01  0.26931890347E+02 -0.18455665628E+03  0.22462784115E+03  0.12509000000E+03 0.  0.
         25    1    1    2    0    0  0.27173018107E+02  0.17612956426E+02 -0.43925355640E+03  0.45786437300E+03  0.12509000000E+03 0.  0.
         25    1    3    3    0    0 -0.32038490625E+02 -0.44544846773E+02 -0.22303862245E+03  0.26154243147E+03  0.12509000000E+03 0.  0.
<mgrwt>
<rscale>  2 0.41719116E+03</rscale>
<asrwt>0</asrwt>
<pdfrwt beam="1">  1       21 0.71460155E-02 0.41719116E+03</pdfrwt>
<pdfrwt beam="2">  1       21 0.13168261E+00 0.41719116E+03</pdfrwt>
<totfact> 0.56267595E+04</totfact>
</mgrwt>
</event>
<event>
 6    0  0.1539497E-004  0.4429621E+03  0.7546771E-02  0.1029842E+00
         21   -1    0    0  502  501  0.00000000000E+00  0.00000000000E+00  0.80816242267E+03  0.80816242267E+03  0.00000000000E+00 0. -1.
         21   -1    0    0  501  502 -0.00000000000E+00 -0.00000000000E+00 -0.60698027288E+02  0.60698027288E+02  0.00000000000E+00 0. -1.
      99925    2    1    2    0    0  0.16467830528E+02  0.41897221411E+02  0.29739893349E+03  0.39957056653E+03  0.26302841175E+03 0.  0.
         25    1    1    2    0    0 -0.16467830528E+02 -0.41897221411E+02  0.45006546189E+03  0.46928988343E+03  0.12509000000E+03 0.  0.
         25    1    3    3    0    0  0.47691558090E+02  0.28965865113E+02  0.16239665702E+03  0.21244690717E+03  0.12509000000E+03 0.  0.
         25    1    3    3    0    0 -0.31223727563E+02  0.12931356298E+02  0.13500227647E+03  0.18712365936E+03  0.12509000000E+03 0.  0.
<mgrwt>
<rscale>  2 0.44296214E+03</rscale>
<asrwt>0</asrwt>
<pdfrwt beam="1">  1       21 0.11884741E+00 0.44296214E+03</pdfrwt>
<pdfrwt beam="2">  1       21 0.89261810E-02 0.44296214E+03</pdfrwt>
<totfact> 0.49073890E+04</totfact>
</mgrwt>
</event>
<event>
 6    0  0.1539497E-004  0.4109550E+03  0.7546771E-02  0.1040051E+00
         21   -1    0    0  502  501  0.00000000000E+00  0.00000000000E+00  0.23307758853E+03  0.23307758853E+03  0.00000000000E+00 0.  1.
         21   -1    0    0  501  502 -0.00000000000E+00 -0.00000000000E+00 -0.18114567821E+03  0.18114567821E+03  0.00000000000E+00 0.  1.
      99925    2    1    2    0    0 -0.55187040085E+02  0.24017584875E+02  0.55035999393E+02  0.27537227738E+03  0.26301801486E+03 0.  0.
         25    1    1    2    0    0  0.55187040085E+02 -0.24017584875E+02 -0.31040890702E+01  0.13885098936E+03  0.12509000000E+03 0.  0.
         25    1    3    3    0    0 -0.10001948435E+02 -0.13393214814E+02  0.53835619483E+02  0.13720495327E+03  0.12509000000E+03 0.  0.
         25    1    3    3    0    0 -0.45185091649E+02  0.37410799688E+02  0.12003799106E+01  0.13816732411E+03  0.12509000000E+03 0.  0.
<mgrwt>
<rscale>  2 0.41095497E+03</rscale>
<asrwt>0</asrwt>
<pdfrwt beam="1">  1       21 0.34276116E-01 0.41095497E+03</pdfrwt>
<pdfrwt beam="2">  1       21 0.26639070E-01 0.41095497E+03</pdfrwt>
<totfact> 0.10350358E+05</totfact>
</mgrwt>
</event>
<event>
 6    0  0.1539497E-004  0.4343370E+03  0.7546771E-02  0.1032499E+00
         21   -1    0    0  502  501  0.00000000000E+00  0.00000000000E+00  0.45080705844E+03  0.45080705844E+03  0.00000000000E+00 0.  1.
         21   -1    0    0  501  502 -0.00000000000E+00 -0.00000000000E+00 -0.10461715560E+03  0.10461715560E+03  0.00000000000E+00 0.  1.
      99925    2    1    2    0    0  0.42753096186E+01 -0.56168017627E+02  0.31627934898E+03  0.41501312542E+03  0.26273588107E+03 0.  0.
         25    1    1    2    0    0 -0.42753096186E+01  0.56168017627E+02  0.29910553864E+02  0.14041108863E+03  0.12509000000E+03 0.  0.
         25    1    3    3    0    0  0.15646083526E+02 -0.57756848206E+02  0.20315323243E+03  0.24596625254E+03  0.12509000000E+03 0.  0.
         25    1    3    3    0    0 -0.11370773907E+02  0.15888305793E+01  0.11312611655E+03  0.16904687287E+03  0.12509000000E+03 0.  0.
<mgrwt>
<rscale>  2 0.43433698E+03</rscale>
<asrwt>0</asrwt>
<pdfrwt beam="1">  1       21 0.66295155E-01 0.43433698E+03</pdfrwt>
<pdfrwt beam="2">  1       21 0.15384876E-01 0.43433698E+03</pdfrwt>
<totfact> 0.72680888E+04</totfact>
</mgrwt>
</event>
<event>
 6    0  0.1539497E-004  0.3933678E+03  0.7546771E-02  0.1046101E+00
         21   -1    0    0  502  501  0.00000000000E+00  0.00000000000E+00  0.75251875813E+02  0.75251875813E+02  0.00000000000E+00 0.  1.
         21   -1    0    0  501  502 -0.00000000000E+00 -0.00000000000E+00 -0.51406755373E+03  0.51406755373E+03  0.00000000000E+00 0.  1.
      99925    2    1    2    0    0 -0.16123883436E+02  0.23214662999E+02 -0.28013934013E+03  0.38529838046E+03  0.26301690421E+03 0.  0.
         25    1    3    3    0    0 -0.12766030200E+02 -0.28138762598E+02 -0.14751404518E+03  0.19586388925E+03  0.12509000000E+03 0.  0.
         25    1    1    2    0    0  0.16123883436E+02 -0.23214662999E+02 -0.15867633779E+03  0.20402104909E+03  0.12509000000E+03 0.  0.
         25    1    3    3    0    0 -0.33578532357E+01  0.51353425597E+02 -0.13262529495E+03  0.18943449121E+03  0.12509000000E+03 0.  0.
<mgrwt>
<rscale>  2 0.39336776E+03</rscale>
<asrwt>0</asrwt>
<pdfrwt beam="1">  1       21 0.11066452E-01 0.39336776E+03</pdfrwt>
<pdfrwt beam="2">  1       21 0.75598172E-01 0.39336776E+03</pdfrwt>
<totfact> 0.99730066E+04</totfact>
</mgrwt>
</event>
<event>
 6    0  0.1539497E-004  0.4162459E+03  0.7546771E-02  0.1038295E+00
         21   -1    0    0  502  501  0.00000000000E+00  0.00000000000E+00  0.69616700170E+02  0.69616700170E+02  0.00000000000E+00 0. -1.
         21   -1    0    0  501  502 -0.00000000000E+00 -0.00000000000E+00 -0.62219494694E+03  0.62219494694E+03  0.00000000000E+00 0. -1.
      99925    2    1    2    0    0 -0.59387564459E+02  0.38151714790E+02 -0.34811031774E+03  0.44193752229E+03  0.26295540332E+03 0.  0.
         25    1    3    3    0    0 -0.34863721263E+01  0.79091778453E+00 -0.20599188620E+03  0.24102478218E+03  0.12509000000E+03 0.  0.
         25    1    1    2    0    0  0.59387564459E+02 -0.38151714790E+02 -0.20446792903E+03  0.24987412482E+03  0.12509000000E+03 0.  0.
         25    1    3    3    0    0 -0.55901192333E+02  0.37360797006E+02 -0.14211843154E+03  0.20091274012E+03  0.12509000000E+03 0.  0.
<mgrwt>
<rscale>  2 0.41624588E+03</rscale>
<asrwt>0</asrwt>
<pdfrwt beam="1">  1       21 0.10237750E-01 0.41624588E+03</pdfrwt>
<pdfrwt beam="2">  1       21 0.91499260E-01 0.41624588E+03</pdfrwt>
<totfact> 0.73271759E+04</totfact>
</mgrwt>
</event>
<event>
 6    0  0.1539497E-004  0.4200066E+03  0.7546771E-02  0.1037064E+00
         21   -1    0    0  502  501  0.00000000000E+00  0.00000000000E+00  0.20850187321E+02  0.20850187321E+02  0.00000000000E+00 0. -1.
         21   -1    0    0  501  502 -0.00000000000E+00 -0.00000000000E+00 -0.21151558015E+04  0.21151558015E+04  0.00000000000E+00 0. -1.
      99925    2    1    2    0    0  0.23462093314E+02  0.62591565870E+02 -0.11830171031E+04  0.12137465717E+04  0.26302680500E+03 0.  0.
         25    1    3    3    0    0 -0.12834786816E+02  0.64955739997E+01 -0.65644447840E+03  0.66841138946E+03  0.12509000000E+03 0.  0.
         25    1    1    2    0    0 -0.23462093314E+02 -0.62591565870E+02 -0.91128851106E+03  0.92225941710E+03  0.12509000000E+03 0.  0.
         25    1    3    3    0    0  0.36296880130E+02  0.56095991870E+02 -0.52657262474E+03  0.54533518228E+03  0.12509000000E+03 0.  0.
<mgrwt>
<rscale>  2 0.42000664E+03</rscale>
<asrwt>0</asrwt>
<pdfrwt beam="1">  1       21 0.30662029E-02 0.42000664E+03</pdfrwt>
<pdfrwt beam="2">  1       21 0.31105243E+00 0.42000664E+03</pdfrwt>
<totfact> 0.15390447E+04</totfact>
</mgrwt>
</event>
<event>
 6    0  0.1539497E-004  0.3947836E+03  0.7546771E-02  0.1045601E+00
         21   -1    0    0  502  501  0.00000000000E+00  0.00000000000E+00  0.20683016134E+03  0.20683016134E+03  0.00000000000E+00 0. -1.
         21   -1    0    0  501  502 -0.00000000000E+00 -0.00000000000E+00 -0.18838410754E+03  0.18838410754E+03  0.00000000000E+00 0. -1.
      99925    2    1    2    0    0 -0.14644985780E+02 -0.16833460627E+02 -0.12917171631E+02  0.26433645940E+03  0.26307616661E+03 0.  0.
         25    1    3    3    0    0 -0.35034049949E+02  0.10738806549E+02  0.16356615458E+02  0.13136876947E+03  0.12509000000E+03 0.  0.
         25    1    1    2    0    0  0.14644985780E+02  0.16833460627E+02  0.31363225426E+02  0.13087780948E+03  0.12509000000E+03 0.  0.
         25    1    3    3    0    0  0.20389064169E+02 -0.27572267176E+02 -0.29273787089E+02  0.13296768993E+03  0.12509000000E+03 0.  0.
<mgrwt>
<rscale>  2 0.39478356E+03</rscale>
<asrwt>0</asrwt>
<pdfrwt beam="1">  1       21 0.30416200E-01 0.39478356E+03</pdfrwt>
<pdfrwt beam="2">  1       21 0.27703545E-01 0.39478356E+03</pdfrwt>
<totfact> 0.12211105E+05</totfact>
</mgrwt>
</event>
<event>
 6    0  0.1539497E-004  0.4356341E+03  0.7546771E-02  0.1032095E+00
         21   -1    0    0  502  501  0.00000000000E+00  0.00000000000E+00  0.18816578012E+03  0.18816578012E+03  0.00000000000E+00 0. -1.
         21   -1    0    0  501  502 -0.00000000000E+00 -0.00000000000E+00 -0.25214077586E+03  0.25214077586E+03  0.00000000000E+00 0. -1.
      99925    2    1    2    0    0 -0.69038234212E+02 -0.53715119563E+02 -0.65410417762E+01  0.27721836198E+03  0.26297460550E+03 0.  0.
         25    1    1    2    0    0  0.69038234212E+02  0.53715119563E+02 -0.57433953967E+02  0.16308819400E+03  0.12509000000E+03 0.  0.
         25    1    3    3    0    0 -0.12338126347E+02  0.92695333338E+01 -0.40612744023E+01  0.12610374959E+03  0.12509000000E+03 0.  0.
         25    1    3    3    0    0 -0.56700107865E+02 -0.62984652897E+02 -0.24797673739E+01  0.15111461239E+03  0.12509000000E+03 0.  0.
<mgrwt>
<rscale>  2 0.43563409E+03</rscale>
<asrwt>0</asrwt>
<pdfrwt beam="1">  1       21 0.27671438E-01 0.43563409E+03</pdfrwt>
<pdfrwt beam="2">  1       21 0.37079526E-01 0.43563409E+03</pdfrwt>
<totfact> 0.81521201E+04</totfact>
</mgrwt>
</event>
<event>
 6    0  0.1539497E-004  0.4067148E+03  0.7546771E-02  0.1041479E+00
         21   -1    0    0  502  501  0.00000000000E+00  0.00000000000E+00  0.70912795310E+02  0.70912795310E+02  0.00000000000E+00 0. -1.
         21   -1    0    0  501  502 -0.00000000000E+00 -0.00000000000E+00 -0.58317035161E+03  0.58317035161E+03  0.00000000000E+00 0. -1.
      99925    2    1    2    0    0 -0.82903469213E+01 -0.31616516113E+02 -0.26230854711E+03  0.37267534810E+03  0.26270288779E+03 0.  0.
         25    1    3    3    0    0 -0.21481083515E+01 -0.30113165540E+02 -0.18545479303E+03  0.22572639515E+03  0.12509000000E+03 0.  0.
         25    1    1    2    0    0  0.82903469213E+01  0.31616516113E+02 -0.24994900919E+03  0.28140779882E+03  0.12509000000E+03 0.  0.
         25    1    3    3    0    0 -0.61422385697E+01 -0.15033505729E+01 -0.76853754083E+02  0.14694895295E+03  0.12509000000E+03 0.  0.
<mgrwt>
<rscale>  2 0.40671484E+03</rscale>
<asrwt>0</asrwt>
<pdfrwt beam="1">  1       21 0.10428352E-01 0.40671484E+03</pdfrwt>
<pdfrwt beam="2">  1       21 0.85760344E-01 0.40671484E+03</pdfrwt>
<totfact> 0.82736294E+04</totfact>
</mgrwt>
</event>
<event>
 6    0  0.1539497E-004  0.4264814E+03  0.7546771E-02  0.1034977E+00
         21   -1    0    0  502  501  0.00000000000E+00  0.00000000000E+00  0.68151810734E+03  0.68151810734E+03  0.00000000000E+00 0.  1.
         21   -1    0    0  501  502 -0.00000000000E+00 -0.00000000000E+00 -0.66721031761E+02  0.66721031761E+02  0.00000000000E+00 0.  1.
      99925    2    1    2    0    0  0.32447793492E+02 -0.53076346542E+02  0.30006942658E+03  0.40389779826E+03  0.26310038542E+03 0.  0.
         25    1    1    2    0    0 -0.32447793492E+02  0.53076346542E+02  0.31472764900E+03  0.34434134083E+03  0.12509000000E+03 0.  0.
         25    1    3    3    0    0  0.54041003071E+02 -0.36579317719E+02  0.13781776367E+03  0.19723012088E+03  0.12509000000E+03 0.  0.
         25    1    3    3    0    0 -0.21593209579E+02 -0.16497028823E+02  0.16225166291E+03  0.20666767739E+03  0.12509000000E+03 0.  0.
<mgrwt>
<rscale>  2 0.42648138E+03</rscale>
<asrwt>0</asrwt>
<pdfrwt beam="1">  1       21 0.10022325E+00 0.42648138E+03</pdfrwt>
<pdfrwt beam="2">  1       21 0.98119168E-02 0.42648138E+03</pdfrwt>
<totfact> 0.63425137E+04</totfact>
</mgrwt>
</event>
<event>
 6    0  0.1539497E-004  0.4053186E+03  0.7546771E-02  0.1041953E+00
         21   -1    0    0  502  501  0.00000000000E+00  0.00000000000E+00  0.24017154144E+03  0.24017154144E+03  0.00000000000E+00 0.  1.
         21   -1    0    0  501  502 -0.00000000000E+00 -0.00000000000E+00 -0.17100606451E+03  0.17100606451E+03  0.00000000000E+00 0.  1.
      99925    2    1    2    0    0 -0.34335278154E+02  0.42872784876E+02  0.44800005911E+02  0.27240379255E+03  0.26302052896E+03 0.  0.
         25    1    3    3    0    0 -0.10770177899E+02 -0.87280231910E+01  0.48821258087E+02  0.13499332747E+03  0.12509000000E+03 0.  0.
         25    1    3    3    0    0 -0.23565100255E+02  0.51600808067E+02 -0.40212521762E+01  0.13741046508E+03  0.12509000000E+03 0.  0.
         25    1    1    2    0    0  0.34335278154E+02 -0.42872784876E+02  0.24365471017E+02  0.13877381340E+03  0.12509000000E+03 0.  0.
<mgrwt>
<rscale>  2 0.40531859E+03</rscale>
<asrwt>0</asrwt>
<pdfrwt beam="1">  1       21 0.35319345E-01 0.40531859E+03</pdfrwt>
<pdfrwt beam="2">  1       21 0.25147951E-01 0.40531859E+03</pdfrwt>
<totfact> 0.10912424E+05</totfact>
</mgrwt>
</event>
<event>
 6    0  0.1587210E-004  0.3930867E+03  0.7546771E-02  0.1046200E+00
         21   -1    0    0  502  501  0.00000000000E+00  0.00000000000E+00  0.13162681089E+03  0.13162681089E+03  0.00000000000E+00 0.  1.
         21   -1    0    0  501  502 -0.00000000000E+00 -0.00000000000E+00 -0.29347583770E+03  0.29347583770E+03  0.00000000000E+00 0.  1.
      99925    2    1    2    0    0 -0.25961960527E+02  0.12660543698E+02 -0.10948999277E+03  0.28645457141E+03  0.26312326048E+03 0.  0.
         25    1    3    3    0    0  0.13386279354E+02 -0.24501869845E+02 -0.46982925773E+02  0.13650801264E+03  0.12509000000E+03 0.  0.
         25    1    3    3    0    0 -0.39348239881E+02  0.37162413543E+02 -0.62507066994E+02  0.14994655877E+03  0.12509000000E+03 0.  0.
         25    1    1    2    0    0  0.25961960527E+02 -0.12660543698E+02 -0.52359034035E+02  0.13864807718E+03  0.12509000000E+03 0.  0.
<mgrwt>
<rscale>  2 0.39308670E+03</rscale>
<asrwt>0</asrwt>
<pdfrwt beam="1">  1       21 0.19356884E-01 0.39308670E+03</pdfrwt>
<pdfrwt beam="2">  1       21 0.43158211E-01 0.39308670E+03</pdfrwt>
<totfact> 0.11983785E+05</totfact>
</mgrwt>
</event>
<event>
 6    0  0.1539497E-004  0.4125904E+03  0.7546771E-02  0.1039505E+00
         21   -1    0    0  502  501  0.00000000000E+00  0.00000000000E+00  0.26918811464E+02  0.26918811464E+02  0.00000000000E+00 0.  1.
         21   -1    0    0  501  502 -0.00000000000E+00 -0.00000000000E+00 -0.15809657120E+04  0.15809657120E+04  0.00000000000E+00 0.  1.
      99925    2    1    2    0    0 -0.54092542523E+02 -0.87647049426E+01 -0.11651868948E+04  0.11957408163E+04  0.26293112539E+03 0.  0.
         25    1    3    3    0    0 -0.19500387952E+02  0.33485929932E+02 -0.62558784388E+03  0.63914726875E+03  0.12509000000E+03 0.  0.
         25    1    1    2    0    0  0.54092542523E+02  0.87647049426E+01 -0.38886000573E+03  0.41214370718E+03  0.12509000000E+03 0.  0.
         25    1    3    3    0    0 -0.34592154571E+02 -0.42250634874E+02 -0.53959905089E+03  0.55659354751E+03  0.12509000000E+03 0.  0.
<mgrwt>
<rscale>  2 0.41259044E+03</rscale>
<asrwt>0</asrwt>
<pdfrwt beam="1">  1       21 0.39586482E-02 0.41259044E+03</pdfrwt>
<pdfrwt beam="2">  1       21 0.23249499E+00 0.41259044E+03</pdfrwt>
<totfact> 0.29972603E+04</totfact>
</mgrwt>
</event>
<event>
 6    0  0.1539497E-004  0.6352280E+03  0.7546771E-02  0.9834900E-01
         21   -1    0    0  502  501  0.00000000000E+00  0.00000000000E+00  0.97368192943E+02  0.97368192943E+02  0.00000000000E+00 0.  1.
         21   -1    0    0  501  502 -0.00000000000E+00 -0.00000000000E+00 -0.10360534864E+04  0.10360534864E+04  0.00000000000E+00 0.  1.
      99925    2    1    2    0    0  0.20050825782E+03  0.14065079546E+03 -0.55926399568E+03  0.66481284778E+03  0.26308496345E+03 0.  0.
         25    1    3    3    0    0  0.11736577360E+03  0.10652475649E+03 -0.36238652942E+03  0.41484184139E+03  0.12509000000E+03 0.  0.
         25    1    1    2    0    0 -0.20050825782E+03 -0.14065079546E+03 -0.37942129782E+03  0.46860883160E+03  0.12509000000E+03 0.  0.
         25    1    3    3    0    0  0.83142484218E+02  0.34126038968E+02 -0.19687746625E+03  0.24997100639E+03  0.12509000000E+03 0.  0.
<mgrwt>
<rscale>  2 0.63522801E+03</rscale>
<asrwt>0</asrwt>
<pdfrwt beam="1">  1       21 0.14318853E-01 0.63522801E+03</pdfrwt>
<pdfrwt beam="2">  1       21 0.15236079E+00 0.63522801E+03</pdfrwt>
<totfact> 0.10294803E+04</totfact>
</mgrwt>
</event>
<event>
 6    0  0.1539497E-004  0.4036234E+03  0.7546771E-02  0.1042532E+00
         21   -1    0    0  502  501  0.00000000000E+00  0.00000000000E+00  0.11110650997E+03  0.11110650997E+03  0.00000000000E+00 0. -1.
         21   -1    0    0  501  502 -0.00000000000E+00 -0.00000000000E+00 -0.36656680757E+03  0.36656680757E+03  0.00000000000E+00 0. -1.
      99925    2    1    2    0    0 -0.42478626267E+02 -0.24138662604E+02 -0.14803082298E+03  0.30569742144E+03  0.26296516917E+03 0.  0.
         25    1    3    3    0    0  0.18780166331E+02 -0.18780614593E+02 -0.76730594228E+02  0.14913248581E+03  0.12509000000E+03 0.  0.
         25    1    1    2    0    0  0.42478626267E+02  0.24138662604E+02 -0.10742947462E+03  0.17197589610E+03  0.12509000000E+03 0.  0.
         25    1    3    3    0    0 -0.61258792598E+02 -0.53580480113E+01 -0.71300228754E+02  0.15656493563E+03  0.12509000000E+03 0.  0.
<mgrwt>
<rscale>  2 0.40362338E+03</rscale>
<asrwt>0</asrwt>
<pdfrwt beam="1">  1       21 0.16339192E-01 0.40362338E+03</pdfrwt>
<pdfrwt beam="2">  1       21 0.53906885E-01 0.40362338E+03</pdfrwt>
<totfact> 0.10280357E+05</totfact>
</mgrwt>
</event>
<event>
 6    0  0.1539497E-004  0.4093233E+03  0.7546771E-02  0.1040598E+00
         21   -1    0    0  502  501  0.00000000000E+00  0.00000000000E+00  0.45907007248E+02  0.45907007248E+02  0.00000000000E+00 0.  1.
         21   -1    0    0  501  502 -0.00000000000E+00 -0.00000000000E+00 -0.91241839197E+03  0.91241839197E+03  0.00000000000E+00 0.  1.
      99925    2    1    2    0    0 -0.38978154304E+02  0.30733860614E+02 -0.48729813704E+03  0.55593993474E+03  0.26295602290E+03 0.  0.
         25    1    1    2    0    0  0.38978154304E+02 -0.30733860614E+02 -0.37921324769E+03  0.40238546448E+03  0.12509000000E+03 0.  0.
         25    1    3    3    0    0 -0.57370925854E+02  0.26042796845E+02 -0.28010667775E+03  0.31317233183E+03  0.12509000000E+03 0.  0.
         25    1    3    3    0    0  0.18392771549E+02  0.46910637681E+01 -0.20719145928E+03  0.24276760292E+03  0.12509000000E+03 0.  0.
<mgrwt>
<rscale>  2 0.40932333E+03</rscale>
<asrwt>0</asrwt>
<pdfrwt beam="1">  1       21 0.67510308E-02 0.40932333E+03</pdfrwt>
<pdfrwt beam="2">  1       21 0.13417917E+00 0.40932333E+03</pdfrwt>
<totfact> 0.59325439E+04</totfact>
</mgrwt>
</event>
<event>
 6    0  0.1539497E-004  0.4441566E+03  0.7546771E-02  0.1029479E+00
         21   -1    0    0  502  501  0.00000000000E+00  0.00000000000E+00  0.43088321656E+03  0.43088321656E+03  0.00000000000E+00 0.  1.
         21   -1    0    0  501  502 -0.00000000000E+00 -0.00000000000E+00 -0.11445971133E+03  0.11445971133E+03  0.00000000000E+00 0.  1.
      99925    2    1    2    0    0  0.78942197754E+02  0.58090510412E+02  0.16427716604E+03  0.32533748564E+03  0.26315606453E+03 0.  0.
         25    1    1    2    0    0 -0.78942197754E+02 -0.58090510412E+02  0.15214633919E+03  0.22000544224E+03  0.12509000000E+03 0.  0.
         25    1    3    3    0    0  0.22639967276E+02  0.34701587867E+02  0.12282211400E+03  0.18013758105E+03  0.12509000000E+03 0.  0.
         25    1    3    3    0    0  0.56302230478E+02  0.23388922545E+02  0.41455052037E+02  0.14519990459E+03  0.12509000000E+03 0.  0.
<mgrwt>
<rscale>  2 0.44415659E+03</rscale>
<asrwt>0</asrwt>
<pdfrwt beam="1">  1       21 0.63365178E-01 0.44415659E+03</pdfrwt>
<pdfrwt beam="2">  1       21 0.16832311E-01 0.44415659E+03</pdfrwt>
<totfact> 0.67808754E+04</totfact>
</mgrwt>
</event>
<event>
 6    0  0.1539497E-004  0.4112675E+03  0.7546771E-02  0.1039946E+00
         21   -1    0    0  502  501  0.00000000000E+00  0.00000000000E+00  0.88574901510E+03  0.88574901510E+03  0.00000000000E+00 0.  1.
         21   -1    0    0  501  502 -0.00000000000E+00 -0.00000000000E+00 -0.47739537267E+02  0.47739537267E+02  0.00000000000E+00 0.  1.
      99925    2    1    2    0    0 -0.18892352355E+02 -0.27213134292E+02  0.42704022776E+03  0.50262812454E+03  0.26300988537E+03 0.  0.
         25    1    3    3    0    0 -0.32866420817E+02  0.16843642203E+02  0.18627457416E+03  0.22739752633E+03  0.12509000000E+03 0.  0.
         25    1    3    3    0    0  0.13974068461E+02 -0.44056776495E+02  0.24076565359E+03  0.27523059822E+03  0.12509000000E+03 0.  0.
         25    1    1    2    0    0  0.18892352355E+02  0.27213134292E+02  0.41096925008E+03  0.43086042782E+03  0.12509000000E+03 0.  0.
<mgrwt>
<rscale>  2 0.41126754E+03</rscale>
<asrwt>0</asrwt>
<pdfrwt beam="1">  1       21 0.13025720E+00 0.41126754E+03</pdfrwt>
<pdfrwt beam="2">  1       21 0.70205207E-02 0.41126754E+03</pdfrwt>
<totfact> 0.59796814E+04</totfact>
</mgrwt>
</event>
<event>
 6    0  0.1539497E-004  0.4377237E+03  0.7546771E-02  0.1031448E+00
         21   -1    0    0  502  501  0.00000000000E+00  0.00000000000E+00  0.53781850613E+02  0.53781850613E+02  0.00000000000E+00 0. -1.
         21   -1    0    0  501  502 -0.00000000000E+00 -0.00000000000E+00 -0.89064449092E+03  0.89064449092E+03  0.00000000000E+00 0. -1.
      99925    2    1    2    0    0 -0.90923670978E+02  0.39101692611E+01 -0.46852598915E+03  0.54492440155E+03  0.26295170188E+03 0.  0.
         25    1    1    2    0    0  0.90923670978E+02 -0.39101692611E+01 -0.36833665116E+03  0.39950193999E+03  0.12509000000E+03 0.  0.
         25    1    3    3    0    0 -0.89097861097E+01  0.22396176871E+02 -0.22347594378E+03  0.25723525920E+03  0.12509000000E+03 0.  0.
         25    1    3    3    0    0 -0.82013884868E+02 -0.18486007610E+02 -0.24505004537E+03  0.28768914235E+03  0.12509000000E+03 0.  0.
<mgrwt>
<rscale>  2 0.43772370E+03</rscale>
<asrwt>0</asrwt>
<pdfrwt beam="1">  1       21 0.79090956E-02 0.43772370E+03</pdfrwt>
<pdfrwt beam="2">  1       21 0.13097713E+00 0.43772370E+03</pdfrwt>
<totfact> 0.47462469E+04</totfact>
</mgrwt>
</event>
<event>
 6    0  0.1539497E-004  0.4073048E+03  0.7546771E-02  0.1041279E+00
         21   -1    0    0  502  501  0.00000000000E+00  0.00000000000E+00  0.51756262133E+03  0.51756262133E+03  0.00000000000E+00 0.  1.
         21   -1    0    0  501  502 -0.00000000000E+00 -0.00000000000E+00 -0.80133860676E+02  0.80133860676E+02  0.00000000000E+00 0.  1.
      99925    2    1    2    0    0  0.43871995718E+02 -0.16403227913E+02  0.23870448287E+03  0.35825407855E+03  0.26300634357E+03 0.  0.
         25    1    3    3    0    0 -0.14916647145E+02  0.28177369913E+01  0.93845687736E+02  0.15711450350E+03  0.12509000000E+03 0.  0.
         25    1    1    2    0    0 -0.43871995718E+02  0.16403227913E+02  0.19872427779E+03  0.23944240346E+03  0.12509000000E+03 0.  0.
         25    1    3    3    0    0  0.58788642862E+02 -0.19220964904E+02  0.14485879513E+03  0.20113957504E+03  0.12509000000E+03 0.  0.
<mgrwt>
<rscale>  2 0.40730476E+03</rscale>
<asrwt>0</asrwt>
<pdfrwt beam="1">  1       21 0.76112149E-01 0.40730476E+03</pdfrwt>
<pdfrwt beam="2">  1       21 0.11784392E-01 0.40730476E+03</pdfrwt>
<totfact> 0.87367052E+04</totfact>
</mgrwt>
</event>
<event>
 6    0  0.1539497E-004  0.4757792E+03  0.7546771E-02  0.1020302E+00
         21   -1    0    0  502  501  0.00000000000E+00  0.00000000000E+00  0.63824916906E+03  0.63824916906E+03  0.00000000000E+00 0.  1.
         21   -1    0    0  501  502 -0.00000000000E+00 -0.00000000000E+00 -0.88666735436E+02  0.88666735436E+02  0.00000000000E+00 0.  1.
      99925    2    1    2    0    0 -0.11461494470E+03  0.40393841987E+02  0.41753628789E+03  0.50816503999E+03  0.26291996528E+03 0.  0.
         25    1    3    3    0    0 -0.30964966790E+02  0.45687432067E+02  0.16662530181E+03  0.21554041366E+03  0.12509000000E+03 0.  0.
         25    1    1    2    0    0  0.11461494470E+03 -0.40393841987E+02  0.13204614573E+03  0.21875086450E+03  0.12509000000E+03 0.  0.
         25    1    3    3    0    0 -0.83649977907E+02 -0.52935900798E+01  0.25091098608E+03  0.29262462633E+03  0.12509000000E+03 0.  0.
<mgrwt>
<rscale>  2 0.47577924E+03</rscale>
<asrwt>0</asrwt>
<pdfrwt beam="1">  1       21 0.93860169E-01 0.47577924E+03</pdfrwt>
<pdfrwt beam="2">  1       21 0.13039226E-01 0.47577924E+03</pdfrwt>
<totfact> 0.43847955E+04</totfact>
</mgrwt>
</event>
<event>
 6    0  0.1539497E-004  0.4579721E+03  0.7546771E-02  0.1025371E+00
         21   -1    0    0  502  501  0.00000000000E+00  0.00000000000E+00  0.17258356943E+02  0.17258356943E+02  0.00000000000E+00 0. -1.
         21   -1    0    0  501  502 -0.00000000000E+00 -0.00000000000E+00 -0.30382151772E+04  0.30382151772E+04  0.00000000000E+00 0. -1.
      99925    2    1    2    0    0  0.49253350948E+02  0.28430751740E+02 -0.12220684657E+04  0.12513446528E+04  0.26301692914E+03 0.  0.
         25    1    1    2    0    0 -0.49253350948E+02 -0.28430751740E+02 -0.17988883545E+04  0.18041288813E+04  0.12509000000E+03 0.  0.
         25    1    3    3    0    0  0.19014133612E+02  0.42582856083E+01 -0.42025472665E+03  0.43890911775E+03  0.12509000000E+03 0.  0.
         25    1    3    3    0    0  0.30239217335E+02  0.24172466132E+02 -0.80181373902E+03  0.81243553502E+03  0.12509000000E+03 0.  0.
<mgrwt>
<rscale>  2 0.45797206E+03</rscale>
<asrwt>0</asrwt>
<pdfrwt beam="1">  1       21 0.25379960E-02 0.45797206E+03</pdfrwt>
<pdfrwt beam="2">  1       21 0.44679594E+00 0.45797206E+03</pdfrwt>
<totfact> 0.28831227E+03</totfact>
</mgrwt>
</event>
<event>
 6    0  0.1539497E-004  0.4197921E+03  0.7546771E-02  0.1037134E+00
         21   -1    0    0  502  501  0.00000000000E+00  0.00000000000E+00  0.13528813965E+03  0.13528813965E+03  0.00000000000E+00 0. -1.
         21   -1    0    0  501  502 -0.00000000000E+00 -0.00000000000E+00 -0.32564828463E+03  0.32564828463E+03  0.00000000000E+00 0. -1.
      99925    2    1    2    0    0  0.45504354711E+01  0.74455147707E+02 -0.13742136968E+03  0.30597095228E+03  0.26300059945E+03 0.  0.
         25    1    3    3    0    0  0.65966484825E+01  0.68500425907E+02 -0.10310091810E+03  0.17610545572E+03  0.12509000000E+03 0.  0.
         25    1    1    2    0    0 -0.45504354711E+01 -0.74455147707E+02 -0.52938775306E+02  0.15496547201E+03  0.12509000000E+03 0.  0.
         25    1    3    3    0    0 -0.20462130114E+01  0.59547218007E+01 -0.34320451574E+02  0.12986549656E+03  0.12509000000E+03 0.  0.
<mgrwt>
<rscale>  2 0.41979209E+03</rscale>
<asrwt>0</asrwt>
<pdfrwt beam="1">  1       21 0.19895315E-01 0.41979209E+03</pdfrwt>
<pdfrwt beam="2">  1       21 0.47889454E-01 0.41979209E+03</pdfrwt>
<totfact> 0.91010805E+04</totfact>
</mgrwt>
</event>
<event>
 6    0  0.1539497E-004  0.4942114E+03  0.7546771E-02  0.1015301E+00
         21   -1    0    0  502  501  0.00000000000E+00  0.00000000000E+00  0.11432463732E+03  0.11432463732E+03  0.00000000000E+00 0. -1.
         21   -1    0    0  501  502 -0.00000000000E+00 -0.00000000000E+00 -0.53410382553E+03  0.53410382553E+03  0.00000000000E+00 0. -1.
      99925    2    1    2    0    0 -0.91638257174E+01  0.11976657652E+03 -0.14486098372E+03  0.32338148806E+03  0.26298835272E+03 0.  0.
         25    1    3    3    0    0 -0.42398414383E+02  0.58210409625E+02 -0.56452884371E+02  0.15498552702E+03  0.12509000000E+03 0.  0.
         25    1    3    3    0    0  0.33234588666E+02  0.61556166899E+02 -0.88408099346E+02  0.16839596105E+03  0.12509000000E+03 0.  0.
         25    1    1    2    0    0  0.91638257174E+01 -0.11976657652E+03 -0.27491820450E+03  0.32504697479E+03  0.12509000000E+03 0.  0.
<mgrwt>
<rscale>  2 0.49421140E+03</rscale>
<asrwt>0</asrwt>
<pdfrwt beam="1">  1       21 0.16812447E-01 0.49421140E+03</pdfrwt>
<pdfrwt beam="2">  1       21 0.78544680E-01 0.49421140E+03</pdfrwt>
<totfact> 0.41410741E+04</totfact>
</mgrwt>
</event>
<event>
 5    0  0.1539497E-004  0.4053364E+03  0.7546771E-02  0.1041947E+00
         21   -1    0    0  502  501  0.00000000000E+00  0.00000000000E+00  0.19574502289E+02  0.19574502289E+02  0.00000000000E+00 0.  1.
         21   -1    0    0  501  502 -0.00000000000E+00 -0.00000000000E+00 -0.20983623466E+04  0.20983623466E+04  0.00000000000E+00 0.  1.
         25    1    1    2    0    0 -0.30947810127E+01  0.24695255575E+02 -0.64238762641E+03  0.65492656381E+03  0.12509000000E+03 0.  0.
         25    1    1    2    0    0  0.55793070141E+02 -0.13743612551E+01 -0.60793453827E+03  0.62317466770E+03  0.12509000000E+03 0.  0.
         25    1    1    2    0    0 -0.52698289128E+02 -0.23320894320E+02 -0.82846567963E+03  0.83983561737E+03  0.12509000000E+03 0.  0.
<mgrwt>
<rscale>  2 0.40533640E+03</rscale>
<asrwt>0</asrwt>
<pdfrwt beam="1">  1       21 0.28786020E-02 0.40533640E+03</pdfrwt>
<pdfrwt beam="2">  1       21 0.30858283E+00 0.40533640E+03</pdfrwt>
<totfact> 0.17826797E+04</totfact>
</mgrwt>
</event>
<event>
 6    0  0.1539497E-004  0.4226899E+03  0.7546771E-02  0.1036194E+00
         21   -1    0    0  502  501  0.00000000000E+00  0.00000000000E+00  0.17676152238E+03  0.17676152238E+03  0.00000000000E+00 0. -1.
         21   -1    0    0  501  502 -0.00000000000E+00 -0.00000000000E+00 -0.25269459492E+03  0.25269459492E+03  0.00000000000E+00 0. -1.
      99925    2    1    2    0    0 -0.51623401478E+01 -0.78288538610E+02 -0.60464042192E+02  0.28098880092E+03  0.26295068133E+03 0.  0.
         25    1    1    2    0    0  0.51623401478E+01  0.78288538610E+02 -0.15469030349E+02  0.14846731638E+03  0.12509000000E+03 0.  0.
         25    1    3    3    0    0  0.11854150962E+02 -0.76200588121E+02 -0.19435878632E+02  0.14823060414E+03  0.12509000000E+03 0.  0.
         25    1    3    3    0    0 -0.17016491110E+02 -0.20879504890E+01 -0.41028163560E+02  0.13275819678E+03  0.12509000000E+03 0.  0.
<mgrwt>
<rscale>  2 0.42268987E+03</rscale>
<asrwt>0</asrwt>
<pdfrwt beam="1">  1       21 0.25994342E-01 0.42268987E+03</pdfrwt>
<pdfrwt beam="2">  1       21 0.37160970E-01 0.42268987E+03</pdfrwt>
<totfact> 0.91968937E+04</totfact>
</mgrwt>
</event>
<event>
 6    0  0.1539497E-004  0.4212794E+03  0.7546771E-02  0.1036651E+00
         21   -1    0    0  502  501  0.00000000000E+00  0.00000000000E+00  0.42991472063E+02  0.42991472063E+02  0.00000000000E+00 0. -1.
         21   -1    0    0  501  502 -0.00000000000E+00 -0.00000000000E+00 -0.10320438505E+04  0.10320438505E+04  0.00000000000E+00 0. -1.
      99925    2    1    2    0    0  0.40030659025E+02  0.66890530158E+02 -0.63567766377E+03  0.69215414810E+03  0.26251566779E+03 0.  0.
         25    1    1    2    0    0 -0.40030659025E+02 -0.66890530158E+02 -0.35337471464E+03  0.38288117443E+03  0.12509000000E+03 0.  0.
         25    1    3    3    0    0  0.33852912287E+02  0.42923966527E+02 -0.41969026538E+03  0.44133424242E+03  0.12509000000E+03 0.  0.
         25    1    3    3    0    0  0.61777467381E+01  0.23966563632E+02 -0.21598739838E+03  0.25081990568E+03  0.12509000000E+03 0.  0.
<mgrwt>
<rscale>  2 0.42127941E+03</rscale>
<asrwt>0</asrwt>
<pdfrwt beam="1">  1       21 0.63222747E-02 0.42127941E+03</pdfrwt>
<pdfrwt beam="2">  1       21 0.15177117E+00 0.42127941E+03</pdfrwt>
<totfact> 0.47753116E+04</totfact>
</mgrwt>
</event>
<event>
 5    0  0.1539497E-004  0.4323042E+03  0.7546771E-02  0.1033135E+00
         21   -1    0    0  502  501  0.00000000000E+00  0.00000000000E+00  0.15785359220E+03  0.15785359220E+03  0.00000000000E+00 0.  1.
         21   -1    0    0  501  502 -0.00000000000E+00 -0.00000000000E+00 -0.29598135819E+03  0.29598135819E+03  0.00000000000E+00 0.  1.
         25    1    1    2    0    0  0.44364470615E+01 -0.66929253277E+02 -0.27548666147E+02  0.14458784220E+03  0.12509000000E+03 0.  0.
         25    1    1    2    0    0  0.52908775737E+02  0.28268272842E+00 -0.55737573097E+02  0.14681145600E+03  0.12509000000E+03 0.  0.
         25    1    1    2    0    0 -0.57345222798E+02  0.66646570549E+02 -0.54841526742E+02  0.16243565218E+03  0.12509000000E+03 0.  0.
<mgrwt>
<rscale>  2 0.43230416E+03</rscale>
<asrwt>0</asrwt>
<pdfrwt beam="1">  1       21 0.23213764E-01 0.43230416E+03</pdfrwt>
<pdfrwt beam="2">  1       21 0.43526670E-01 0.43230416E+03</pdfrwt>
<totfact> 0.82549190E+04</totfact>
</mgrwt>
</event>
<event>
 6    0  0.1539497E-004  0.4402927E+03  0.7546771E-02  0.1030657E+00
         21   -1    0    0  502  501  0.00000000000E+00  0.00000000000E+00  0.18137145464E+03  0.18137145464E+03  0.00000000000E+00 0. -1.
         21   -1    0    0  501  502 -0.00000000000E+00 -0.00000000000E+00 -0.26721082401E+03  0.26721082401E+03  0.00000000000E+00 0. -1.
      99925    2    1    2    0    0 -0.52166660697E+02  0.83118555959E+02 -0.43468861596E+02  0.28404406771E+03  0.26298561869E+03 0.  0.
         25    1    1    2    0    0  0.52166660697E+02 -0.83118555959E+02 -0.42370507768E+02  0.16453821095E+03  0.12509000000E+03 0.  0.
         25    1    3    3    0    0 -0.35051300743E+02  0.82169081715E+02 -0.13698423725E+02  0.15432273516E+03  0.12509000000E+03 0.  0.
         25    1    3    3    0    0 -0.17115359953E+02  0.94947424405E+00 -0.29770437870E+02  0.12972133255E+03  0.12509000000E+03 0.  0.
<mgrwt>
<rscale>  2 0.44029270E+03</rscale>
<asrwt>0</asrwt>
<pdfrwt beam="1">  1       21 0.26672273E-01 0.44029270E+03</pdfrwt>
<pdfrwt beam="2">  1       21 0.39295709E-01 0.44029270E+03</pdfrwt>
<totfact> 0.77743221E+04</totfact>
</mgrwt>
</event>
<event>
 6    0  0.1539497E-004  0.4132595E+03  0.7546771E-02  0.1039283E+00
         21   -1    0    0  502  501  0.00000000000E+00  0.00000000000E+00  0.59716720389E+02  0.59716720389E+02  0.00000000000E+00 0.  1.
         21   -1    0    0  501  502 -0.00000000000E+00 -0.00000000000E+00 -0.71497330923E+03  0.71497330923E+03  0.00000000000E+00 0.  1.
      99925    2    1    2    0    0  0.36296706851E+02 -0.31244038507E+02 -0.51786014544E+03  0.58280743106E+03  0.26304321051E+03 0.  0.
         25    1    3    3    0    0 -0.13220599593E+02  0.10478336972E+02 -0.23123143302E+03  0.26343891799E+03  0.12509000000E+03 0.  0.
         25    1    1    2    0    0 -0.36296706851E+02  0.31244038507E+02 -0.13739644340E+03  0.19188259856E+03  0.12509000000E+03 0.  0.
         25    1    3    3    0    0  0.49517306444E+02 -0.41722375478E+02 -0.28662871242E+03  0.31936851307E+03  0.12509000000E+03 0.  0.
<mgrwt>
<rscale>  2 0.41325954E+03</rscale>
<asrwt>0</asrwt>
<pdfrwt beam="1">  1       21 0.87818707E-02 0.41325954E+03</pdfrwt>
<pdfrwt beam="2">  1       21 0.10514313E+00 0.41325954E+03</pdfrwt>
<totfact> 0.68991463E+04</totfact>
</mgrwt>
</event>
<event>
 6    0  0.1539497E-004  0.3988448E+03  0.7546771E-02  0.1044180E+00
         21   -1    0    0  502  501  0.00000000000E+00  0.00000000000E+00  0.19289164951E+03  0.19289164951E+03  0.00000000000E+00 0.  1.
         21   -1    0    0  501  502 -0.00000000000E+00 -0.00000000000E+00 -0.20617430019E+03  0.20617430019E+03  0.00000000000E+00 0.  1.
      99925    2    1    2    0    0 -0.36853800787E+02 -0.17707280111E+01 -0.30722801702E+02  0.26748705672E+03  0.26314273097E+03 0.  0.
         25    1    1    2    0    0  0.36853800787E+02  0.17707280111E+01  0.17440151023E+02  0.13157889298E+03  0.12509000000E+03 0.  0.
         25    1    3    3    0    0  0.20093969464E+02  0.12549909255E+02 -0.20122586150E+02  0.12889412091E+03  0.12509000000E+03 0.  0.
         25    1    3    3    0    0 -0.56947770252E+02 -0.14320637267E+02 -0.10600215552E+02  0.13859293582E+03  0.12509000000E+03 0.  0.
<mgrwt>
<rscale>  2 0.39884484E+03</rscale>
<asrwt>0</asrwt>
<pdfrwt beam="1">  1       21 0.28366419E-01 0.39884484E+03</pdfrwt>
<pdfrwt beam="2">  1       21 0.30319750E-01 0.39884484E+03</pdfrwt>
<totfact> 0.11720560E+05</totfact>
</mgrwt>
</event>
<event>
 6    0  0.1539497E-004  0.3972873E+03  0.7546771E-02  0.1044723E+00
         21   -1    0    0  502  501  0.00000000000E+00  0.00000000000E+00  0.29353050291E+02  0.29353050291E+02  0.00000000000E+00 0. -1.
         21   -1    0    0  501  502 -0.00000000000E+00 -0.00000000000E+00 -0.13442994953E+04  0.13442994953E+04  0.00000000000E+00 0. -1.
      99925    2    1    2    0    0  0.33747140634E+02  0.97834809677E+01 -0.82310618703E+03  0.86493952879E+03  0.26340464561E+03 0.  0.
         25    1    3    3    0    0 -0.29740650934E+01 -0.11085484522E+02 -0.50781737722E+03  0.52312305410E+03  0.12509000000E+03 0.  0.
         25    1    1    2    0    0 -0.33747140634E+02 -0.97834809677E+01 -0.49184025802E+03  0.50871301685E+03  0.12509000000E+03 0.  0.
         25    1    3    3    0    0  0.36721205728E+02  0.20868965489E+02 -0.31528880982E+03  0.34181647468E+03  0.12509000000E+03 0.  0.
<mgrwt>
<rscale>  2 0.39728725E+03</rscale>
<asrwt>0</asrwt>
<pdfrwt beam="1">  1       21 0.43166244E-02 0.39728725E+03</pdfrwt>
<pdfrwt beam="2">  1       21 0.19769113E+00 0.39728725E+03</pdfrwt>
<totfact> 0.43545206E+04</totfact>
</mgrwt>
</event>
<event>
 6    0  0.1539497E-004  0.5107709E+03  0.7546771E-02  0.1011005E+00
         21   -1    0    0  502  501  0.00000000000E+00  0.00000000000E+00  0.97313713628E+02  0.97313713628E+02  0.00000000000E+00 0. -1.
         21   -1    0    0  501  502 -0.00000000000E+00 -0.00000000000E+00 -0.67022124418E+03  0.67022124418E+03  0.00000000000E+00 0. -1.
      99925    2    1    2    0    0  0.14133606970E+02  0.10077494282E+03 -0.15944512025E+03  0.32373993668E+03  0.26273456621E+03 0.  0.
         25    1    3    3    0    0  0.40918768865E+02  0.28015258784E+02 -0.74125300669E+02  0.15362704407E+03  0.12509000000E+03 0.  0.
         25    1    3    3    0    0 -0.26785161895E+02  0.72759684037E+02 -0.85319819584E+02  0.17011289261E+03  0.12509000000E+03 0.  0.
         25    1    1    2    0    0 -0.14133606970E+02 -0.10077494282E+03 -0.41346241030E+03  0.44379502113E+03  0.12509000000E+03 0.  0.
<mgrwt>
<rscale>  2 0.51077086E+03</rscale>
<asrwt>0</asrwt>
<pdfrwt beam="1">  1       21 0.14310840E-01 0.51077086E+03</pdfrwt>
<pdfrwt beam="2">  1       21 0.98561949E-01 0.51077086E+03</pdfrwt>
<totfact> 0.32579076E+04</totfact>
</mgrwt>
</event>
<event>
 6    0  0.1539497E-004  0.3917280E+03  0.7546771E-02  0.1046682E+00
         21   -1    0    0  502  501  0.00000000000E+00  0.00000000000E+00  0.17704174081E+03  0.17704174081E+03  0.00000000000E+00 0.  1.
         21   -1    0    0  501  502 -0.00000000000E+00 -0.00000000000E+00 -0.21668740860E+03  0.21668740860E+03  0.00000000000E+00 0.  1.
      99925    2    1    2    0    0  0.13063248746E+02  0.21201881090E+02 -0.25895638429E+02  0.26544532487E+03  0.26300279120E+03 0.  0.
         25    1    1    2    0    0 -0.13063248746E+02 -0.21201881090E+02 -0.13750029359E+02  0.12828382453E+03  0.12509000000E+03 0.  0.
         25    1    3    3    0    0  0.12733247531E+02  0.46045759765E+02  0.58143514116E+01  0.13402858787E+03  0.12509000000E+03 0.  0.
         25    1    3    3    0    0  0.33000121468E+00 -0.24843878675E+02 -0.31709989840E+02  0.13141673700E+03  0.12509000000E+03 0.  0.
<mgrwt>
<rscale>  2 0.39172805E+03</rscale>
<asrwt>0</asrwt>
<pdfrwt beam="1">  1       21 0.26035550E-01 0.39172805E+03</pdfrwt>
<pdfrwt beam="2">  1       21 0.31865795E-01 0.39172805E+03</pdfrwt>
<totfact> 0.12575505E+05</totfact>
</mgrwt>
</event>
<event>
 6    0  0.1539497E-004  0.5643342E+03  0.7546771E-02  0.9982295E-01
         21   -1    0    0  502  501  0.00000000000E+00  0.00000000000E+00  0.29057662617E+03  0.29057662617E+03  0.00000000000E+00 0.  1.
         21   -1    0    0  501  502 -0.00000000000E+00 -0.00000000000E+00 -0.27400095869E+03  0.27400095869E+03  0.00000000000E+00 0.  1.
      99925    2    1    2    0    0 -0.31394875237E+02 -0.19604821211E+03  0.16520066327E+02  0.32991175682E+03  0.26296067203E+03 0.  0.
         25    1    1    2    0    0  0.31394875237E+02  0.19604821211E+03  0.55601151281E-01  0.23466582805E+03  0.12509000000E+03 0.  0.
         25    1    3    3    0    0 -0.31863069273E+02 -0.79383456924E+02  0.41319317094E+02  0.15707253892E+03  0.12509000000E+03 0.  0.
         25    1    3    3    0    0  0.46819403586E+00 -0.11666475518E+03 -0.24799250767E+02  0.17283921790E+03  0.12509000000E+03 0.  0.
<mgrwt>
<rscale>  2 0.56433421E+03</rscale>
<asrwt>0</asrwt>
<pdfrwt beam="1">  1       21 0.42731857E-01 0.56433421E+03</pdfrwt>
<pdfrwt beam="2">  1       21 0.40294259E-01 0.56433421E+03</pdfrwt>
<totfact> 0.27791177E+04</totfact>
</mgrwt>
</event>
<event>
 6    0  0.1539497E-004  0.5155840E+03  0.7546771E-02  0.1009789E+00
         21   -1    0    0  502  501  0.00000000000E+00  0.00000000000E+00  0.63181237011E+02  0.63181237011E+02  0.00000000000E+00 0. -1.
         21   -1    0    0  501  502 -0.00000000000E+00 -0.00000000000E+00 -0.10518424544E+04  0.10518424544E+04  0.00000000000E+00 0. -1.
      99925    2    1    2    0    0  0.11444312717E+03  0.43796804569E+01 -0.84628067042E+03  0.89358264010E+03  0.26302576033E+03 0.  0.
         25    1    1    2    0    0 -0.11444312717E+03 -0.43796804569E+01 -0.14238054699E+03  0.22144105134E+03  0.12509000000E+03 0.  0.
         25    1    3    3    0    0  0.30595700589E+02 -0.19941239502E+02 -0.46514468461E+03  0.48305365711E+03  0.12509000000E+03 0.  0.
         25    1    3    3    0    0  0.83847426577E+02  0.24320919958E+02 -0.38113598581E+03  0.41052898299E+03  0.12509000000E+03 0.  0.
<mgrwt>
<rscale>  2 0.51558397E+03</rscale>
<asrwt>0</asrwt>
<pdfrwt beam="1">  1       21 0.92913579E-02 0.51558397E+03</pdfrwt>
<pdfrwt beam="2">  1       21 0.15468272E+00 0.51558397E+03</pdfrwt>
<totfact> 0.22380182E+04</totfact>
</mgrwt>
</event>
<event>
 6    0  0.1539497E-004  0.4192055E+03  0.7546771E-02  0.1037325E+00
         21   -1    0    0  502  501  0.00000000000E+00  0.00000000000E+00  0.50504602814E+03  0.50504602814E+03  0.00000000000E+00 0.  1.
         21   -1    0    0  501  502 -0.00000000000E+00 -0.00000000000E+00 -0.86988747929E+02  0.86988747929E+02  0.00000000000E+00 0.  1.
      99925    2    1    2    0    0 -0.49900098789E+02 -0.31979486478E+02  0.20815347675E+03  0.34059925308E+03  0.26299671842E+03 0.  0.
         25    1    1    2    0    0  0.49900098789E+02  0.31979486478E+02  0.20990380346E+03  0.25143552299E+03  0.12509000000E+03 0.  0.
         25    1    3    3    0    0 -0.28090010080E+02 -0.53742210899E+02  0.88624047025E+02  0.16486055838E+03  0.12509000000E+03 0.  0.
         25    1    3    3    0    0 -0.21810088709E+02  0.21762724421E+02  0.11952942973E+03  0.17573869470E+03  0.12509000000E+03 0.  0.
<mgrwt>
<rscale>  2 0.41920554E+03</rscale>
<asrwt>0</asrwt>
<pdfrwt beam="1">  1       21 0.74271474E-01 0.41920554E+03</pdfrwt>
<pdfrwt beam="2">  1       21 0.12792463E-01 0.41920554E+03</pdfrwt>
<totfact> 0.79341050E+04</totfact>
</mgrwt>
</event>
<event>
 6    0  0.1539497E-004  0.4663530E+03  0.7546771E-02  0.1022955E+00
         21   -1    0    0  502  501  0.00000000000E+00  0.00000000000E+00  0.18853293576E+02  0.18853293576E+02  0.00000000000E+00 0. -1.
         21   -1    0    0  501  502 -0.00000000000E+00 -0.00000000000E+00 -0.28839137194E+04  0.28839137194E+04  0.00000000000E+00 0. -1.
      99925    2    1    2    0    0  0.60511654802E+02  0.65611197470E+02 -0.23166158871E+04  0.23332010293E+04  0.26296650961E+03 0.  0.
         25    1    3    3    0    0  0.45098830126E+02  0.18911021320E+02 -0.86360295530E+03  0.87398461297E+03  0.12509000000E+03 0.  0.
         25    1    1    2    0    0 -0.60511654802E+02 -0.65611197470E+02 -0.54844453868E+03  0.56956598363E+03  0.12509000000E+03 0.  0.
         25    1    3    3    0    0  0.15412824676E+02  0.46700176150E+02 -0.14530129318E+04  0.14592164164E+04  0.12509000000E+03 0.  0.
<mgrwt>
<rscale>  2 0.46635297E+03</rscale>
<asrwt>0</asrwt>
<pdfrwt beam="1">  1       21 0.27725420E-02 0.46635297E+03</pdfrwt>
<pdfrwt beam="2">  1       21 0.42410514E+00 0.46635297E+03</pdfrwt>
<totfact> 0.35060707E+03</totfact>
</mgrwt>
</event>
<event>
 6    0  0.1539497E-004  0.4060565E+03  0.7546771E-02  0.1041702E+00
         21   -1    0    0  502  501  0.00000000000E+00  0.00000000000E+00  0.24489889648E+02  0.24489889648E+02  0.00000000000E+00 0. -1.
         21   -1    0    0  501  502 -0.00000000000E+00 -0.00000000000E+00 -0.16831631079E+04  0.16831631079E+04  0.00000000000E+00 0. -1.
      99925    2    1    2    0    0  0.36359815194E+02 -0.39673367931E+02 -0.10312680177E+04  0.10656399089E+04  0.26301839995E+03 0.  0.
         25    1    3    3    0    0  0.24794125896E+02 -0.12018711005E+02 -0.67052485374E+03  0.68264946032E+03  0.12509000000E+03 0.  0.
         25    1    3    3    0    0  0.11565689298E+02 -0.27654656926E+02 -0.36074316398E+03  0.38299044855E+03  0.12509000000E+03 0.  0.
         25    1    1    2    0    0 -0.36359815194E+02  0.39673367931E+02 -0.62740520052E+03  0.64201308867E+03  0.12509000000E+03 0.  0.
<mgrwt>
<rscale>  2 0.40605654E+03</rscale>
<asrwt>0</asrwt>
<pdfrwt beam="1">  1       21 0.36014544E-02 0.40605654E+03</pdfrwt>
<pdfrwt beam="2">  1       21 0.24752398E+00 0.40605654E+03</pdfrwt>
<totfact> 0.28485316E+04</totfact>
</mgrwt>
</event>
<event>
 6    0  0.1539497E-004  0.4560216E+03  0.7546771E-02  0.1025941E+00
         21   -1    0    0  502  501  0.00000000000E+00  0.00000000000E+00  0.21699920725E+04  0.21699920725E+04  0.00000000000E+00 0.  1.
         21   -1    0    0  501  502 -0.00000000000E+00 -0.00000000000E+00 -0.23958113128E+02  0.23958113128E+02  0.00000000000E+00 0.  1.
      99925    2    1    2    0    0  0.81095520793E+02  0.16869108589E+02  0.17263525349E+04  0.17482585248E+04  0.26316106233E+03 0.  0.
         25    1    3    3    0    0  0.24346324829E+01  0.65305828223E+01  0.67587508895E+03  0.68738869638E+03  0.12509000000E+03 0.  0.
         25    1    1    2    0    0 -0.81095520793E+02 -0.16869108589E+02  0.41968142450E+03  0.44569166078E+03  0.12509000000E+03 0.  0.
         25    1    3    3    0    0  0.78660888310E+02  0.10338525767E+02  0.10504774459E+04  0.10608698285E+04  0.12509000000E+03 0.  0.
<mgrwt>
<rscale>  2 0.45602156E+03</rscale>
<asrwt>0</asrwt>
<pdfrwt beam="1">  1       21 0.31911635E+00 0.45602156E+03</pdfrwt>
<pdfrwt beam="2">  1       21 0.35232534E-02 0.45602156E+03</pdfrwt>
<totfact> 0.10708814E+04</totfact>
</mgrwt>
</event>
<event>
 6    0  0.1539497E-004  0.3973524E+03  0.7546771E-02  0.1044700E+00
         21   -1    0    0  502  501  0.00000000000E+00  0.00000000000E+00  0.26289401160E+04  0.26289401160E+04  0.00000000000E+00 0.  1.
         21   -1    0    0  501  502 -0.00000000000E+00 -0.00000000000E+00 -0.15014501718E+02  0.15014501718E+02  0.00000000000E+00 0.  1.
      99925    2    1    2    0    0 -0.26463382181E+02  0.25708552157E+02  0.16590700585E+04  0.16802337656E+04  0.26326945870E+03 0.  0.
         25    1    1    2    0    0  0.26463382181E+02 -0.25708552157E+02  0.95485555575E+03  0.96372085206E+03  0.12509000000E+03 0.  0.
         25    1    3    3    0    0  0.20857150838E+02  0.17521094835E+02  0.66913731337E+03  0.68127399902E+03  0.12509000000E+03 0.  0.
         25    1    3    3    0    0 -0.47320533019E+02  0.81874573216E+01  0.98993274515E+03  0.99895976662E+03  0.12509000000E+03 0.  0.
<mgrwt>
<rscale>  2 0.39735237E+03</rscale>
<asrwt>0</asrwt>
<pdfrwt beam="1">  1       21 0.38660852E+00 0.39735237E+03</pdfrwt>
<pdfrwt beam="2">  1       21 0.22080168E-02 0.39735237E+03</pdfrwt>
<totfact> 0.92886715E+03</totfact>
</mgrwt>
</event>
<event>
 6    0  0.1539497E-004  0.4526333E+03  0.7546771E-02  0.1026940E+00
         21   -1    0    0  502  501  0.00000000000E+00  0.00000000000E+00  0.44064637857E+03  0.44064637857E+03  0.00000000000E+00 0. -1.
         21   -1    0    0  501  502 -0.00000000000E+00 -0.00000000000E+00 -0.11623658263E+03  0.11623658263E+03  0.00000000000E+00 0. -1.
      99925    2    1    2    0    0 -0.31266683098E+02 -0.10630032184E+03  0.19878142918E+03  0.34781991203E+03  0.26303473291E+03 0.  0.
         25    1    3    3    0    0 -0.97186751329E+01 -0.74665098446E+02  0.62205949156E+02  0.15870229293E+03  0.12509000000E+03 0.  0.
         25    1    3    3    0    0 -0.21548007966E+02 -0.31635223391E+02  0.13657548003E+03  0.18911761909E+03  0.12509000000E+03 0.  0.
         25    1    1    2    0    0  0.31266683098E+02  0.10630032184E+03  0.12562836675E+03  0.20906304917E+03  0.12509000000E+03 0.  0.
<mgrwt>
<rscale>  2 0.45263331E+03</rscale>
<asrwt>0</asrwt>
<pdfrwt beam="1">  1       21 0.64800937E-01 0.45263331E+03</pdfrwt>
<pdfrwt beam="2">  1       21 0.17093615E-01 0.45263331E+03</pdfrwt>
<totfact> 0.62577304E+04</totfact>
</mgrwt>
</event>
<event>
 6    0  0.1539497E-004  0.4708244E+03  0.7546771E-02  0.1021688E+00
         21   -1    0    0  502  501  0.00000000000E+00  0.00000000000E+00  0.99106479764E+03  0.99106479764E+03  0.00000000000E+00 0. -1.
         21   -1    0    0  501  502 -0.00000000000E+00 -0.00000000000E+00 -0.55918537595E+02  0.55918537595E+02  0.00000000000E+00 0. -1.
      99925    2    1    2    0    0 -0.12174529466E+03  0.36615389627E+02  0.56093693574E+03  0.63244415732E+03  0.26300715336E+03 0.  0.
         25    1    1    2    0    0  0.12174529466E+03 -0.36615389627E+02  0.37420932431E+03  0.41453917792E+03  0.12509000000E+03 0.  0.
         25    1    3    3    0    0 -0.94038478606E+02  0.36541536449E+02  0.35846921250E+03  0.39284373961E+03  0.12509000000E+03 0.  0.
         25    1    3    3    0    0 -0.27706816054E+02  0.73853177212E-01  0.20246772324E+03  0.23960041771E+03  0.12509000000E+03 0.  0.
<mgrwt>
<rscale>  2 0.47082436E+03</rscale>
<asrwt>0</asrwt>
<pdfrwt beam="1">  1       21 0.14574481E+00 0.47082436E+03</pdfrwt>
<pdfrwt beam="2">  1       21 0.82233150E-02 0.47082436E+03</pdfrwt>
<totfact> 0.33106023E+04</totfact>
</mgrwt>
</event>
<event>
 6    0  0.1539497E-004  0.4032956E+03  0.7546771E-02  0.1042644E+00
         21   -1    0    0  502  501  0.00000000000E+00  0.00000000000E+00  0.11650400391E+03  0.11650400391E+03  0.00000000000E+00 0.  1.
         21   -1    0    0  501  502 -0.00000000000E+00 -0.00000000000E+00 -0.34901670093E+03  0.34901670093E+03  0.00000000000E+00 0.  1.
      99925    2    1    2    0    0  0.45445208048E+02  0.23643105865E+02 -0.14608107918E+03  0.30507695752E+03  0.26288401421E+03 0.  0.
         25    1    1    2    0    0 -0.45445208048E+02 -0.23643105865E+02 -0.86431617845E+02  0.16044374732E+03  0.12509000000E+03 0.  0.
         25    1    3    3    0    0  0.13347922536E+02  0.50697891715E+02 -0.80650298651E+02  0.15779867564E+03  0.12509000000E+03 0.  0.
         25    1    3    3    0    0  0.32097285512E+02 -0.27054785850E+02 -0.65430780529E+02  0.14727828189E+03  0.12509000000E+03 0.  0.
<mgrwt>
<rscale>  2 0.40329564E+03</rscale>
<asrwt>0</asrwt>
<pdfrwt beam="1">  1       21 0.17132942E-01 0.40329564E+03</pdfrwt>
<pdfrwt beam="2">  1       21 0.51325985E-01 0.40329564E+03</pdfrwt>
<totfact> 0.10450201E+05</totfact>
</mgrwt>
</event>
<event>
 6    0  0.1539497E-004  0.4290512E+03  0.7546771E-02  0.1034160E+00
         21   -1    0    0  502  501  0.00000000000E+00  0.00000000000E+00  0.25765244828E+03  0.25765244828E+03  0.00000000000E+00 0. -1.
         21   -1    0    0  501  502 -0.00000000000E+00 -0.00000000000E+00 -0.17861744796E+03  0.17861744796E+03  0.00000000000E+00 0. -1.
      99925    2    1    2    0    0 -0.46896981559E+02 -0.10571283611E+02 -0.22124913819E+02  0.26836541374E+03  0.26309580871E+03 0.  0.
         25    1    3    3    0    0 -0.96384252520E+01 -0.24201449672E+02 -0.44378827290E+02  0.13526122068E+03  0.12509000000E+03 0.  0.
         25    1    3    3    0    0 -0.37258556306E+02  0.13630166061E+02  0.22253913471E+02  0.13310419306E+03  0.12509000000E+03 0.  0.
         25    1    1    2    0    0  0.46896981559E+02  0.10571283611E+02  0.10115991414E+03  0.16790448250E+03  0.12509000000E+03 0.  0.
<mgrwt>
<rscale>  2 0.42905115E+03</rscale>
<asrwt>0</asrwt>
<pdfrwt beam="1">  1       21 0.37890066E-01 0.42905115E+03</pdfrwt>
<pdfrwt beam="2">  1       21 0.26267272E-01 0.42905115E+03</pdfrwt>
<totfact> 0.86501906E+04</totfact>
</mgrwt>
</event>
<event>
 6    0  0.1539497E-004  0.4036434E+03  0.7546771E-02  0.1042525E+00
         21   -1    0    0  502  501  0.00000000000E+00  0.00000000000E+00  0.52778054523E+02  0.52778054523E+02  0.00000000000E+00 0. -1.
         21   -1    0    0  501  502 -0.00000000000E+00 -0.00000000000E+00 -0.77175997942E+03  0.77175997942E+03  0.00000000000E+00 0. -1.
      99925    2    1    2    0    0  0.26462873333E+02  0.40054816819E+02 -0.43283506689E+03  0.50857568736E+03  0.26267539402E+03 0.  0.
         25    1    3    3    0    0 -0.14604208877E+02  0.48637220065E+02 -0.21256036431E+03  0.25181000510E+03  0.12509000000E+03 0.  0.
         25    1    3    3    0    0  0.41067082210E+02 -0.85824032458E+01 -0.22027470258E+03  0.25676568226E+03  0.12509000000E+03 0.  0.
         25    1    1    2    0    0 -0.26462873333E+02 -0.40054816819E+02 -0.28614685801E+03  0.31596234659E+03  0.12509000000E+03 0.  0.
<mgrwt>
<rscale>  2 0.40364336E+03</rscale>
<asrwt>0</asrwt>
<pdfrwt beam="1">  1       21 0.77614794E-02 0.40364336E+03</pdfrwt>
<pdfrwt beam="2">  1       21 0.11349410E+00 0.40364336E+03</pdfrwt>
<totfact> 0.71257011E+04</totfact>
</mgrwt>
</event>
<event>
 6    0  0.1539497E-004  0.4319196E+03  0.7546771E-02  0.1033255E+00
         21   -1    0    0  502  501  0.00000000000E+00  0.00000000000E+00  0.36715853872E+02  0.36715853872E+02  0.00000000000E+00 0. -1.
         21   -1    0    0  501  502 -0.00000000000E+00 -0.00000000000E+00 -0.12702588474E+04  0.12702588474E+04  0.00000000000E+00 0. -1.
      99925    2    1    2    0    0  0.69686239480E+02  0.11862923817E+01 -0.96686041602E+03  0.10042790051E+04  0.26248747907E+03 0.  0.
         25    1    3    3    0    0 -0.40640001013E+01 -0.49615415703E+01 -0.40516545518E+03  0.42408452832E+03  0.12509000000E+03 0.  0.
         25    1    1    2    0    0 -0.69686239480E+02 -0.11862923817E+01 -0.26668257755E+03  0.30269569625E+03  0.12509000000E+03 0.  0.
         25    1    3    3    0    0  0.73750239582E+02  0.61478339520E+01 -0.56169496084E+03  0.58019447674E+03  0.12509000000E+03 0.  0.
<mgrwt>
<rscale>  2 0.43191961E+03</rscale>
<asrwt>0</asrwt>
<pdfrwt beam="1">  1       21 0.53993908E-02 0.43191961E+03</pdfrwt>
<pdfrwt beam="2">  1       21 0.18680275E+00 0.43191961E+03</pdfrwt>
<totfact> 0.34742778E+04</totfact>
</mgrwt>
</event>
<event>
 6    0  0.1539497E-004  0.4707928E+03  0.7546771E-02  0.1021697E+00
         21   -1    0    0  502  501  0.00000000000E+00  0.00000000000E+00  0.29071726685E+03  0.29071726685E+03  0.00000000000E+00 0. -1.
         21   -1    0    0  501  502 -0.00000000000E+00 -0.00000000000E+00 -0.19060257158E+03  0.19060257158E+03  0.00000000000E+00 0. -1.
      99925    2    1    2    0    0 -0.34029906535E+02 -0.12710530107E+02  0.18696909714E+03  0.32476062490E+03  0.26304453632E+03 0.  0.
         25    1    3    3    0    0 -0.42791883445E+02 -0.38109103334E+02  0.95593816136E+02  0.16753845776E+03  0.12509000000E+03 0.  0.
         25    1    1    2    0    0  0.34029906535E+02  0.12710530107E+02 -0.86854401870E+02  0.15655921352E+03  0.12509000000E+03 0.  0.
         25    1    3    3    0    0  0.87619769093E+01  0.25398573227E+02  0.91375281003E+02  0.15722216714E+03  0.12509000000E+03 0.  0.
<mgrwt>
<rscale>  2 0.47079277E+03</rscale>
<asrwt>0</asrwt>
<pdfrwt beam="1">  1       21 0.42752539E-01 0.47079277E+03</pdfrwt>
<pdfrwt beam="2">  1       21 0.28029790E-01 0.47079277E+03</pdfrwt>
<totfact> 0.58870828E+04</totfact>
</mgrwt>
</event>
<event>
 6    0  0.1539497E-004  0.3964275E+03  0.7546771E-02  0.1045024E+00
         21   -1    0    0  502  501  0.00000000000E+00  0.00000000000E+00  0.30615908061E+03  0.30615908061E+03  0.00000000000E+00 0.  1.
         21   -1    0    0  501  502 -0.00000000000E+00 -0.00000000000E+00 -0.12832772249E+03  0.12832772249E+03  0.00000000000E+00 0.  1.
      99925    2    1    2    0    0 -0.28247730328E+02  0.31168572387E+01  0.14710738730E+03  0.30258108090E+03  0.26288225131E+03 0.  0.
         25    1    1    2    0    0  0.28247730328E+02 -0.31168572387E+01  0.30723970823E+02  0.13190572221E+03  0.12509000000E+03 0.  0.
         25    1    3    3    0    0  0.17810599547E+02  0.19129796291E+02  0.51591176039E+02  0.13781264132E+03  0.12509000000E+03 0.  0.
         25    1    3    3    0    0 -0.46058329875E+02 -0.16012939052E+02  0.95516211259E+02  0.16476843958E+03  0.12509000000E+03 0.  0.
<mgrwt>
<rscale>  2 0.39642753E+03</rscale>
<asrwt>0</asrwt>
<pdfrwt beam="1">  1       21 0.45023394E-01 0.39642753E+03</pdfrwt>
<pdfrwt beam="2">  1       21 0.18871724E-01 0.39642753E+03</pdfrwt>
<totfact> 0.11504605E+05</totfact>
</mgrwt>
</event>
<event>
 6    0  0.1539497E-004  0.3885135E+03  0.7546771E-02  0.1047831E+00
         21   -1    0    0  502  501  0.00000000000E+00  0.00000000000E+00  0.47396265798E+03  0.47396265798E+03  0.00000000000E+00 0. -1.
         21   -1    0    0  501  502 -0.00000000000E+00 -0.00000000000E+00 -0.79617416511E+02  0.79617416511E+02  0.00000000000E+00 0. -1.
      99925    2    1    2    0    0 -0.76503460881E+01  0.35350337115E+01  0.26789271759E+03  0.37551050058E+03  0.26300304874E+03 0.  0.
         25    1    1    2    0    0  0.76503460881E+01 -0.35350337115E+01  0.12645252388E+03  0.17806957391E+03  0.12509000000E+03 0.  0.
         25    1    3    3    0    0  0.21707763152E+02  0.32868332117E+02  0.12633151866E+03  0.18209534575E+03  0.12509000000E+03 0.  0.
         25    1    3    3    0    0 -0.29358109240E+02 -0.29333298406E+02  0.14156119893E+03  0.19341515482E+03  0.12509000000E+03 0.  0.
<mgrwt>
<rscale>  2 0.38851349E+03</rscale>
<asrwt>0</asrwt>
<pdfrwt beam="1">  1       21 0.69700389E-01 0.38851349E+03</pdfrwt>
<pdfrwt beam="2">  1       21 0.11708444E-01 0.38851349E+03</pdfrwt>
<totfact> 0.10830847E+05</totfact>
</mgrwt>
</event>
<event>
 6    0  0.1539497E-004  0.3950147E+03  0.7546771E-02  0.1045520E+00
         21   -1    0    0  502  501  0.00000000000E+00  0.00000000000E+00  0.35342207245E+03  0.35342207245E+03  0.00000000000E+00 0. -1.
         21   -1    0    0  501  502 -0.00000000000E+00 -0.00000000000E+00 -0.11037554281E+03  0.11037554281E+03  0.00000000000E+00 0. -1.
      99925    2    1    2    0    0  0.18324616571E+01 -0.13405399147E+02  0.12622726937E+03  0.29210803984E+03  0.26307930508E+03 0.  0.
         25    1    3    3    0    0  0.28819342838E+02 -0.37956939262E+01  0.30463579435E+02  0.13198674019E+03  0.12509000000E+03 0.  0.
         25    1    3    3    0    0 -0.26986881181E+02 -0.96097052204E+01  0.95763689934E+02  0.16012129965E+03  0.12509000000E+03 0.  0.
         25    1    1    2    0    0 -0.18324616571E+01  0.13405399147E+02  0.11681926027E+03  0.17168957543E+03  0.12509000000E+03 0.  0.
<mgrwt>
<rscale>  2 0.39501470E+03</rscale>
<asrwt>0</asrwt>
<pdfrwt beam="1">  1       21 0.51973834E-01 0.39501470E+03</pdfrwt>
<pdfrwt beam="2">  1       21 0.16231698E-01 0.39501470E+03</pdfrwt>
<totfact> 0.11273478E+05</totfact>
</mgrwt>
</event>
<event>
 6    0  0.1539497E-004  0.4484998E+03  0.7546771E-02  0.1028170E+00
         21   -1    0    0  502  501  0.00000000000E+00  0.00000000000E+00  0.31358665221E+02  0.31358665221E+02  0.00000000000E+00 0. -1.
         21   -1    0    0  501  502 -0.00000000000E+00 -0.00000000000E+00 -0.16036400365E+04  0.16036400365E+04  0.00000000000E+00 0. -1.
      99925    2    1    2    0    0  0.33259078315E+02 -0.27403632172E+02 -0.13521025870E+04  0.13781264952E+04  0.26304772494E+03 0.  0.
         25    1    3    3    0    0  0.25425300116E+02 -0.53688394488E+02 -0.69543179567E+03  0.70908517127E+03  0.12509000000E+03 0.  0.
         25    1    3    3    0    0  0.78337781989E+01  0.26284762317E+02 -0.65667079136E+03  0.66904132394E+03  0.12509000000E+03 0.  0.
         25    1    1    2    0    0 -0.33259078315E+02  0.27403632172E+02 -0.22017878427E+03  0.25687220653E+03  0.12509000000E+03 0.  0.
<mgrwt>
<rscale>  2 0.44849977E+03</rscale>
<asrwt>0</asrwt>
<pdfrwt beam="1">  1       21 0.46115683E-02 0.44849977E+03</pdfrwt>
<pdfrwt beam="2">  1       21 0.23582942E+00 0.44849977E+03</pdfrwt>
<totfact> 0.21726373E+04</totfact>
</mgrwt>
</event>
<event>
 6    0  0.1539497E-004  0.5908720E+03  0.7546771E-02  0.9924527E-01
         21   -1    0    0  502  501  0.00000000000E+00  0.00000000000E+00  0.10134828701E+03  0.10134828701E+03  0.00000000000E+00 0.  1.
         21   -1    0    0  501  502 -0.00000000000E+00 -0.00000000000E+00 -0.86121279909E+03  0.86121279909E+03  0.00000000000E+00 0.  1.
      99925    2    1    2    0    0 -0.19543148525E+03 -0.22465146251E+02 -0.29182693335E+03  0.43967980758E+03  0.26354738842E+03 0.  0.
         25    1    3    3    0    0 -0.81141311903E+02 -0.25317439235E+02 -0.89404349255E+02  0.17568588729E+03  0.12509000000E+03 0.  0.
         25    1    3    3    0    0 -0.11429017335E+03  0.28522929840E+01 -0.20242258410E+03  0.26399392029E+03  0.12509000000E+03 0.  0.
         25    1    1    2    0    0  0.19543148525E+03  0.22465146251E+02 -0.46803757873E+03  0.52288127852E+03  0.12509000000E+03 0.  0.
<mgrwt>
<rscale>  2 0.59087204E+03</rscale>
<asrwt>0</asrwt>
<pdfrwt beam="1">  1       21 0.14904159E-01 0.59087204E+03</pdfrwt>
<pdfrwt beam="2">  1       21 0.12664894E+00 0.59087204E+03</pdfrwt>
<totfact> 0.15823642E+04</totfact>
</mgrwt>
</event>
<event>
 6    0  0.1539497E-004  0.3930849E+03  0.7546771E-02  0.1046201E+00
         21   -1    0    0  502  501  0.00000000000E+00  0.00000000000E+00  0.32392247045E+03  0.32392247045E+03  0.00000000000E+00 0. -1.
         21   -1    0    0  501  502 -0.00000000000E+00 -0.00000000000E+00 -0.11925361669E+03  0.11925361669E+03  0.00000000000E+00 0. -1.
      99925    2    1    2    0    0 -0.28902614997E+01 -0.19954881230E+01  0.17067263293E+03  0.31350116005E+03  0.26294770229E+03 0.  0.
         25    1    3    3    0    0 -0.22866509419E+02 -0.35323365477E+02  0.84473427214E+02  0.15669679450E+03  0.12509000000E+03 0.  0.
         25    1    3    3    0    0  0.19976247919E+02  0.33327877354E+02  0.86199205714E+02  0.15680436555E+03  0.12509000000E+03 0.  0.
         25    1    1    2    0    0  0.28902614997E+01  0.19954881230E+01  0.33996220839E+02  0.12967492709E+03  0.12509000000E+03 0.  0.
<mgrwt>
<rscale>  2 0.39308486E+03</rscale>
<asrwt>0</asrwt>
<pdfrwt beam="1">  1       21 0.47635657E-01 0.39308486E+03</pdfrwt>
<pdfrwt beam="2">  1       21 0.17537297E-01 0.39308486E+03</pdfrwt>
<totfact> 0.11740579E+05</totfact>
</mgrwt>
</event>
<event>
 6    0  0.1539497E-004  0.5933078E+03  0.7546771E-02  0.9919388E-01
         21   -1    0    0  502  501  0.00000000000E+00  0.00000000000E+00  0.92039273609E+02  0.92039273609E+02  0.00000000000E+00 0.  1.
         21   -1    0    0  501  502 -0.00000000000E+00 -0.00000000000E+00 -0.95615192458E+03  0.95615192458E+03  0.00000000000E+00 0.  1.
      99925    2    1    2    0    0 -0.63717957033E+02  0.16636989193E+03 -0.27850274362E+03  0.42343093163E+03  0.26455822925E+03 0.  0.
         25    1    3    3    0    0 -0.53174309681E+02  0.73361440631E+02 -0.90626061802E+02  0.17908098548E+03  0.12509000000E+03 0.  0.
         25    1    3    3    0    0 -0.10543647352E+02  0.93008451299E+02 -0.18787668182E+03  0.24434994615E+03  0.12509000000E+03 0.  0.
         25    1    1    2    0    0  0.63717957033E+02 -0.16636989193E+03 -0.58560990735E+03  0.62476026656E+03  0.12509000000E+03 0.  0.
<mgrwt>
<rscale>  2 0.59330777E+03</rscale>
<asrwt>0</asrwt>
<pdfrwt beam="1">  1       21 0.13535186E-01 0.59330777E+03</pdfrwt>
<pdfrwt beam="2">  1       21 0.14061059E+00 0.59330777E+03</pdfrwt>
<totfact> 0.14353446E+04</totfact>
</mgrwt>
</event>
<event>
 6    0  0.1539497E-004  0.4371745E+03  0.7546771E-02  0.1031617E+00
         21   -1    0    0  502  501  0.00000000000E+00  0.00000000000E+00  0.12870278271E+03  0.12870278271E+03  0.00000000000E+00 0. -1.
         21   -1    0    0  501  502 -0.00000000000E+00 -0.00000000000E+00 -0.37124597128E+03  0.37124597128E+03  0.00000000000E+00 0. -1.
      99925    2    1    2    0    0 -0.33364510627E+02  0.64665484709E+02 -0.84800629003E+02  0.28588091736E+03  0.26313862649E+03 0.  0.
         25    1    3    3    0    0 -0.78824243438E+01  0.33277311853E+01 -0.69685920024E+02  0.14344630340E+03  0.12509000000E+03 0.  0.
         25    1    1    2    0    0  0.33364510627E+02 -0.64665484709E+02 -0.15774255956E+03  0.21406783663E+03  0.12509000000E+03 0.  0.
         25    1    3    3    0    0 -0.25482086283E+02  0.61337753524E+02 -0.15114708979E+02  0.14243461397E+03  0.12509000000E+03 0.  0.
<mgrwt>
<rscale>  2 0.43717452E+03</rscale>
<asrwt>0</asrwt>
<pdfrwt beam="1">  1       21 0.18926880E-01 0.43717452E+03</pdfrwt>
<pdfrwt beam="2">  1       21 0.54594995E-01 0.43717452E+03</pdfrwt>
<totfact> 0.75387703E+04</totfact>
</mgrwt>
</event>
<event>
 6    0  0.1539497E-004  0.4755050E+03  0.7546771E-02  0.1020378E+00
         21   -1    0    0  502  501  0.00000000000E+00  0.00000000000E+00  0.30081643915E+03  0.30081643915E+03  0.00000000000E+00 0.  1.
         21   -1    0    0  501  502 -0.00000000000E+00 -0.00000000000E+00 -0.18790946301E+03  0.18790946301E+03  0.00000000000E+00 0.  1.
      99925    2    1    2    0    0  0.81877726936E+02  0.82162041009E+02  0.62776212826E+01  0.28754963475E+03  0.26304148107E+03 0.  0.
         25    1    3    3    0    0  0.22487841931E+00  0.25238785380E+02  0.15378082529E+01  0.12762021710E+03  0.12509000000E+03 0.  0.
         25    1    3    3    0    0  0.81652848517E+02  0.56923255629E+02  0.47398130297E+01  0.15992941765E+03  0.12509000000E+03 0.  0.
         25    1    1    2    0    0 -0.81877726936E+02 -0.82162041009E+02  0.10662935486E+03  0.20117626741E+03  0.12509000000E+03 0.  0.
<mgrwt>
<rscale>  2 0.47550502E+03</rscale>
<asrwt>0</asrwt>
<pdfrwt beam="1">  1       21 0.44237711E-01 0.47550502E+03</pdfrwt>
<pdfrwt beam="2">  1       21 0.27633745E-01 0.47550502E+03</pdfrwt>
<totfact> 0.56328532E+04</totfact>
</mgrwt>
</event>
<event>
 6    0  0.1539497E-004  0.4094802E+03  0.7546771E-02  0.1040546E+00
         21   -1    0    0  502  501  0.00000000000E+00  0.00000000000E+00  0.14626920478E+04  0.14626920478E+04  0.00000000000E+00 0. -1.
         21   -1    0    0  501  502 -0.00000000000E+00 -0.00000000000E+00 -0.28658459296E+02  0.28658459296E+02  0.00000000000E+00 0. -1.
      99925    2    1    2    0    0 -0.14952191708E+02 -0.10613125377E+02  0.11596687817E+04  0.11892582003E+04  0.26299653507E+03 0.  0.
         25    1    3    3    0    0 -0.12642905626E+02  0.34770875710E+02  0.59037385666E+03  0.60461364158E+03  0.12509000000E+03 0.  0.
         25    1    3    3    0    0 -0.23092860828E+01 -0.45384001087E+02  0.56929492501E+03  0.58464455877E+03  0.12509000000E+03 0.  0.
         25    1    1    2    0    0  0.14952191708E+02  0.10613125377E+02  0.27436480688E+03  0.30209230679E+03  0.12509000000E+03 0.  0.
<mgrwt>
<rscale>  2 0.40948016E+03</rscale>
<asrwt>0</asrwt>
<pdfrwt beam="1">  1       21 0.21510172E+00 0.40948016E+03</pdfrwt>
<pdfrwt beam="2">  1       21 0.42144803E-02 0.40948016E+03</pdfrwt>
<totfact> 0.34749639E+04</totfact>
</mgrwt>
</event>
<event>
 6    0  0.1539497E-004  0.4866985E+03  0.7546771E-02  0.1017310E+00
         21   -1    0    0  502  501  0.00000000000E+00  0.00000000000E+00  0.32849045126E+03  0.32849045126E+03  0.00000000000E+00 0. -1.
         21   -1    0    0  501  502 -0.00000000000E+00 -0.00000000000E+00 -0.18027574047E+03  0.18027574047E+03  0.00000000000E+00 0. -1.
      99925    2    1    2    0    0  0.64863014778E+02 -0.12282655326E+03  0.11478498650E+03  0.31887509810E+03  0.26308204460E+03 0.  0.
         25    1    3    3    0    0 -0.45919731343E+00 -0.65142091347E+02  0.81288899684E+02  0.16278543006E+03  0.12509000000E+03 0.  0.
         25    1    3    3    0    0  0.65322212092E+02 -0.57684461911E+02  0.33496086819E+02  0.15608966805E+03  0.12509000000E+03 0.  0.
         25    1    1    2    0    0 -0.64863014778E+02  0.12282655326E+03  0.33429724284E+02  0.18989109362E+03  0.12509000000E+03 0.  0.
<mgrwt>
<rscale>  2 0.48669851E+03</rscale>
<asrwt>0</asrwt>
<pdfrwt beam="1">  1       21 0.48307419E-01 0.48669851E+03</pdfrwt>
<pdfrwt beam="2">  1       21 0.26511138E-01 0.48669851E+03</pdfrwt>
<totfact> 0.50660379E+04</totfact>
</mgrwt>
</event>
<event>
 6    0  0.1539497E-004  0.4195454E+03  0.7546771E-02  0.1037214E+00
         21   -1    0    0  502  501  0.00000000000E+00  0.00000000000E+00  0.21143423138E+03  0.21143423138E+03  0.00000000000E+00 0.  1.
         21   -1    0    0  501  502 -0.00000000000E+00 -0.00000000000E+00 -0.20812424306E+03  0.20812424306E+03  0.00000000000E+00 0.  1.
      99925    2    1    2    0    0 -0.63268533034E+02  0.98597404738E+01  0.41765488017E+02  0.27386545707E+03  0.26297872695E+03 0.  0.
         25    1    3    3    0    0 -0.10207112242E+02  0.13479728206E+02 -0.13882275140E+02  0.12698863680E+03  0.12509000000E+03 0.  0.
         25    1    3    3    0    0 -0.53061420791E+02 -0.36199877326E+01  0.55647763156E+02  0.14687682027E+03  0.12509000000E+03 0.  0.
         25    1    1    2    0    0  0.63268533034E+02 -0.98597404738E+01 -0.38455499695E+02  0.14569301737E+03  0.12509000000E+03 0.  0.
<mgrwt>
<rscale>  2 0.41954542E+03</rscale>
<asrwt>0</asrwt>
<pdfrwt beam="1">  1       21 0.31093269E-01 0.41954542E+03</pdfrwt>
<pdfrwt beam="2">  1       21 0.30606506E-01 0.41954542E+03</pdfrwt>
<totfact> 0.95518220E+04</totfact>
</mgrwt>
</event>
<event>
 6    0  0.1539497E-004  0.5013847E+03  0.7546771E-02  0.1013418E+00
         21   -1    0    0  502  501  0.00000000000E+00  0.00000000000E+00  0.54909797590E+02  0.54909797590E+02  0.00000000000E+00 0. -1.
         21   -1    0    0  501  502 -0.00000000000E+00 -0.00000000000E+00 -0.11445434083E+04  0.11445434083E+04  0.00000000000E+00 0. -1.
      99925    2    1    2    0    0  0.11832053066E+03 -0.92820023671E+02 -0.72381841174E+03  0.78462363526E+03  0.26287991757E+03 0.  0.
         25    1    1    2    0    0 -0.11832053066E+03  0.92820023671E+02 -0.36581519894E+03  0.41482957060E+03  0.12509000000E+03 0.  0.
         25    1    3    3    0    0  0.26851471101E+02 -0.20712396162E+02 -0.26480317303E+03  0.29481898413E+03  0.12509000000E+03 0.  0.
         25    1    3    3    0    0  0.91469059560E+02 -0.72107627509E+02 -0.45901523871E+03  0.48980465113E+03  0.12509000000E+03 0.  0.
<mgrwt>
<rscale>  2 0.50138467E+03</rscale>
<asrwt>0</asrwt>
<pdfrwt beam="1">  1       21 0.80749711E-02 0.50138467E+03</pdfrwt>
<pdfrwt beam="2">  1       21 0.16831519E+00 0.50138467E+03</pdfrwt>
<totfact> 0.22766780E+04</totfact>
</mgrwt>
</event>
<event>
 6    0  0.1539497E-004  0.4848177E+03  0.7546771E-02  0.1017819E+00
         21   -1    0    0  502  501  0.00000000000E+00  0.00000000000E+00  0.51391394691E+03  0.51391394691E+03  0.00000000000E+00 0. -1.
         21   -1    0    0  501  502 -0.00000000000E+00 -0.00000000000E+00 -0.11434219116E+03  0.11434219116E+03  0.00000000000E+00 0. -1.
      99925    2    1    2    0    0 -0.81286708976E+02 -0.77390187574E+02  0.35199722317E+03  0.45359184738E+03  0.26314776972E+03 0.  0.
         25    1    1    2    0    0  0.81286708976E+02  0.77390187574E+02  0.47574532588E+02  0.17466429068E+03  0.12509000000E+03 0.  0.
         25    1    3    3    0    0 -0.78705644105E+02 -0.60882307453E+02  0.19281390948E+03  0.25045148345E+03  0.12509000000E+03 0.  0.
         25    1    3    3    0    0 -0.25810648704E+01 -0.16507880122E+02  0.15918331368E+03  0.20314036393E+03  0.12509000000E+03 0.  0.
<mgrwt>
<rscale>  2 0.48481768E+03</rscale>
<asrwt>0</asrwt>
<pdfrwt beam="1">  1       21 0.75575579E-01 0.48481768E+03</pdfrwt>
<pdfrwt beam="2">  1       21 0.16815028E-01 0.48481768E+03</pdfrwt>
<totfact> 0.45320910E+04</totfact>
</mgrwt>
</event>
<event>
 6    0  0.1539497E-004  0.4014581E+03  0.7546771E-02  0.1043276E+00
         21   -1    0    0  502  501  0.00000000000E+00  0.00000000000E+00  0.34986893085E+03  0.34986893085E+03  0.00000000000E+00 0.  1.
         21   -1    0    0  501  502 -0.00000000000E+00 -0.00000000000E+00 -0.11516357995E+03  0.11516357995E+03  0.00000000000E+00 0.  1.
      99925    2    1    2    0    0 -0.22373684700E+02 -0.41647456623E+02  0.14439815152E+03  0.30366959447E+03  0.26292452155E+03 0.  0.
         25    1    3    3    0    0 -0.26638988610E+01  0.16788100031E+02  0.52942260358E+02  0.13689166407E+03  0.12509000000E+03 0.  0.
         25    1    3    3    0    0 -0.19709785839E+02 -0.58435556654E+02  0.91455891167E+02  0.16677793040E+03  0.12509000000E+03 0.  0.
         25    1    1    2    0    0  0.22373684700E+02  0.41647456623E+02  0.90307199372E+02  0.16136291634E+03  0.12509000000E+03 0.  0.
<mgrwt>
<rscale>  2 0.40145814E+03</rscale>
<asrwt>0</asrwt>
<pdfrwt beam="1">  1       21 0.51451313E-01 0.40145814E+03</pdfrwt>
<pdfrwt beam="2">  1       21 0.16935821E-01 0.40145814E+03</pdfrwt>
<totfact> 0.10627517E+05</totfact>
</mgrwt>
</event>
<event>
 6    0  0.1539497E-004  0.4333038E+03  0.7546771E-02  0.1032821E+00
         21   -1    0    0  502  501  0.00000000000E+00  0.00000000000E+00  0.21560205615E+02  0.21560205615E+02  0.00000000000E+00 0. -1.
         21   -1    0    0  501  502 -0.00000000000E+00 -0.00000000000E+00 -0.21770685988E+04  0.21770685988E+04  0.00000000000E+00 0. -1.
      99925    2    1    2    0    0  0.82472851821E+02  0.32195804219E+02 -0.14984968218E+04  0.15239807079E+04  0.26303256834E+03 0.  0.
         25    1    3    3    0    0  0.16480275876E+02 -0.47667559834E+01 -0.55154813218E+03  0.56581549261E+03  0.12509000000E+03 0.  0.
         25    1    1    2    0    0 -0.82472851821E+02 -0.32195804219E+02 -0.65701157136E+03  0.67464809649E+03  0.12509000000E+03 0.  0.
         25    1    3    3    0    0  0.65992575945E+02  0.36962560202E+02 -0.94694868966E+03  0.95816521533E+03  0.12509000000E+03 0.  0.
<mgrwt>
<rscale>  2 0.43330380E+03</rscale>
<asrwt>0</asrwt>
<pdfrwt beam="1">  1       21 0.31706191E-02 0.43330380E+03</pdfrwt>
<pdfrwt beam="2">  1       21 0.32015708E+00 0.43330380E+03</pdfrwt>
<totfact> 0.12746243E+04</totfact>
</mgrwt>
</event>
<event>
 6    0  0.1539497E-004  0.3906718E+03  0.7546771E-02  0.1047058E+00
         21   -1    0    0  502  501  0.00000000000E+00  0.00000000000E+00  0.11424721075E+03  0.11424721075E+03  0.00000000000E+00 0.  1.
         21   -1    0    0  501  502 -0.00000000000E+00 -0.00000000000E+00 -0.33397857723E+03  0.33397857723E+03  0.00000000000E+00 0.  1.
      99925    2    1    2    0    0  0.54563572383E+01 -0.19869019456E+02 -0.15231692013E+03  0.30464039372E+03  0.26302238604E+03 0.  0.
         25    1    1    2    0    0 -0.54563572383E+01  0.19869019456E+02 -0.67414446358E+02  0.14358539426E+03  0.12509000000E+03 0.  0.
         25    1    3    3    0    0  0.17866118229E+02  0.10339281013E+02 -0.38779647675E+02  0.13258004407E+03  0.12509000000E+03 0.  0.
         25    1    3    3    0    0 -0.12409760991E+02 -0.30208300469E+02 -0.11353727245E+03  0.17206034965E+03  0.12509000000E+03 0.  0.
<mgrwt>
<rscale>  2 0.39067184E+03</rscale>
<asrwt>0</asrwt>
<pdfrwt beam="1">  1       21 0.16801060E-01 0.39067184E+03</pdfrwt>
<pdfrwt beam="2">  1       21 0.49114497E-01 0.39067184E+03</pdfrwt>
<totfact> 0.11932356E+05</totfact>
</mgrwt>
</event>
<event>
 6    0  0.1539497E-004  0.7478714E+03  0.7546771E-02  0.9638696E-01
         21   -1    0    0  502  501  0.00000000000E+00  0.00000000000E+00  0.64167834156E+03  0.64167834156E+03  0.00000000000E+00 0.  1.
         21   -1    0    0  501  502 -0.00000000000E+00 -0.00000000000E+00 -0.21790967853E+03  0.21790967853E+03  0.00000000000E+00 0.  1.
      99925    2    1    2    0    0 -0.23907355905E+03  0.38856632709E+02  0.24624058030E+01  0.35777881828E+03  0.26331276997E+03 0.  0.
         25    1    3    3    0    0 -0.82400205189E+02 -0.13574718960E+02 -0.38779488351E+01  0.15045468885E+03  0.12509000000E+03 0.  0.
         25    1    3    3    0    0 -0.15667335386E+03  0.52431351669E+02  0.63403546380E+01  0.20732412943E+03  0.12509000000E+03 0.  0.
         25    1    1    2    0    0  0.23907355905E+03 -0.38856632709E+02  0.42130625722E+03  0.50180920181E+03  0.12509000000E+03 0.  0.
<mgrwt>
<rscale>  2 0.74787144E+03</rscale>
<asrwt>0</asrwt>
<pdfrwt beam="1">  1       21 0.94364462E-01 0.74787144E+03</pdfrwt>
<pdfrwt beam="2">  1       21 0.32045541E-01 0.74787144E+03</pdfrwt>
<totfact> 0.72811135E+03</totfact>
</mgrwt>
</event>
<event>
 6    0  0.1539497E-004  0.4155520E+03  0.7546771E-02  0.1038524E+00
         21   -1    0    0  502  501  0.00000000000E+00  0.00000000000E+00  0.27288056823E+03  0.27288056823E+03  0.00000000000E+00 0.  1.
         21   -1    0    0  501  502 -0.00000000000E+00 -0.00000000000E+00 -0.15820427748E+03  0.15820427748E+03  0.00000000000E+00 0.  1.
      99925    2    1    2    0    0 -0.60485046775E+01 -0.59331909740E+02  0.11338258078E+03  0.29249898168E+03  0.26295091697E+03 0.  0.
         25    1    3    3    0    0 -0.26198030641E+02 -0.20545060027E+02  0.90717064941E+02  0.15806811909E+03  0.12509000000E+03 0.  0.
         25    1    3    3    0    0  0.20149525964E+02 -0.38786849714E+02  0.22665515843E+02  0.13443086259E+03  0.12509000000E+03 0.  0.
         25    1    1    2    0    0  0.60485046775E+01  0.59331909740E+02  0.12937099649E+01  0.13858586403E+03  0.12509000000E+03 0.  0.
<mgrwt>
<rscale>  2 0.41555203E+03</rscale>
<asrwt>0</asrwt>
<pdfrwt beam="1">  1       21 0.40129495E-01 0.41555203E+03</pdfrwt>
<pdfrwt beam="2">  1       21 0.23265335E-01 0.41555203E+03</pdfrwt>
<totfact> 0.97585732E+04</totfact>
</mgrwt>
</event>
<event>
 6    0  0.1539497E-004  0.4344376E+03  0.7546771E-02  0.1032467E+00
         21   -1    0    0  502  501  0.00000000000E+00  0.00000000000E+00  0.66281870181E+02  0.66281870181E+02  0.00000000000E+00 0. -1.
         21   -1    0    0  501  502 -0.00000000000E+00 -0.00000000000E+00 -0.71186890694E+03  0.71186890694E+03  0.00000000000E+00 0. -1.
      99925    2    1    2    0    0 -0.64939965368E+02 -0.61363549186E+02 -0.37135648147E+03  0.46377426746E+03  0.26305560355E+03 0.  0.
         25    1    1    2    0    0  0.64939965368E+02  0.61363549186E+02 -0.27423055529E+03  0.31437650966E+03  0.12509000000E+03 0.  0.
         25    1    3    3    0    0 -0.59965216863E+02 -0.24518881549E+02 -0.14282301939E+03  0.20060639510E+03  0.12509000000E+03 0.  0.
         25    1    3    3    0    0 -0.49747485047E+01 -0.36844667637E+02 -0.22853346208E+03  0.26316787237E+03  0.12509000000E+03 0.  0.
<mgrwt>
<rscale>  2 0.43443758E+03</rscale>
<asrwt>0</asrwt>
<pdfrwt beam="1">  1       21 0.97473344E-02 0.43443758E+03</pdfrwt>
<pdfrwt beam="2">  1       21 0.10468660E+00 0.43443758E+03</pdfrwt>
<totfact> 0.57587377E+04</totfact>
</mgrwt>
</event>
<event>
 6    0  0.1539497E-004  0.4027175E+03  0.7546771E-02  0.1042843E+00
         21   -1    0    0  502  501  0.00000000000E+00  0.00000000000E+00  0.47285451784E+03  0.47285451784E+03  0.00000000000E+00 0.  1.
         21   -1    0    0  501  502 -0.00000000000E+00 -0.00000000000E+00 -0.85745925639E+02  0.85745925639E+02  0.00000000000E+00 0.  1.
      99925    2    1    2    0    0 -0.16213314879E+02 -0.47708219586E+02  0.25705907285E+03  0.37125228795E+03  0.26307783750E+03 0.  0.
         25    1    1    2    0    0  0.16213314879E+02  0.47708219586E+02  0.13004951936E+03  0.18734815553E+03  0.12509000000E+03 0.  0.
         25    1    3    3    0    0  0.25562861802E+02 -0.18314480965E+02  0.15661254503E+03  0.20288883034E+03  0.12509000000E+03 0.  0.
         25    1    3    3    0    0 -0.41776176682E+02 -0.29393738621E+02  0.10044652782E+03  0.16836345761E+03  0.12509000000E+03 0.  0.
<mgrwt>
<rscale>  2 0.40271751E+03</rscale>
<asrwt>0</asrwt>
<pdfrwt beam="1">  1       21 0.69537428E-01 0.40271751E+03</pdfrwt>
<pdfrwt beam="2">  1       21 0.12609695E-01 0.40271751E+03</pdfrwt>
<totfact> 0.94849467E+04</totfact>
</mgrwt>
</event>
<event>
 6    0  0.1539497E-004  0.4332519E+03  0.7546771E-02  0.1032838E+00
         21   -1    0    0  502  501  0.00000000000E+00  0.00000000000E+00  0.86920312308E+02  0.86920312308E+02  0.00000000000E+00 0. -1.
         21   -1    0    0  501  502 -0.00000000000E+00 -0.00000000000E+00 -0.53988301455E+03  0.53988301455E+03  0.00000000000E+00 0. -1.
      99925    2    1    2    0    0  0.34349499271E+02 -0.46918898488E+02 -0.19036877209E+03  0.33018176427E+03  0.26343586874E+03 0.  0.
         25    1    1    2    0    0 -0.34349499271E+02  0.46918898488E+02 -0.26259393016E+03  0.29662156259E+03  0.12509000000E+03 0.  0.
         25    1    3    3    0    0  0.16594281300E+02 -0.57888931387E+02 -0.70619128451E+02  0.15575964802E+03  0.12509000000E+03 0.  0.
         25    1    3    3    0    0  0.17755217971E+02  0.10970032899E+02 -0.11974964364E+03  0.17442211625E+03  0.12509000000E+03 0.  0.
<mgrwt>
<rscale>  2 0.43325189E+03</rscale>
<asrwt>0</asrwt>
<pdfrwt beam="1">  1       21 0.12782399E-01 0.43325189E+03</pdfrwt>
<pdfrwt beam="2">  1       21 0.79394561E-01 0.43325189E+03</pdfrwt>
<totfact> 0.68000619E+04</totfact>
</mgrwt>
</event>
<event>
 6    0  0.1539497E-004  0.4133361E+03  0.7546771E-02  0.1039257E+00
         21   -1    0    0  502  501  0.00000000000E+00  0.00000000000E+00  0.12747106210E+03  0.12747106210E+03  0.00000000000E+00 0. -1.
         21   -1    0    0  501  502 -0.00000000000E+00 -0.00000000000E+00 -0.33506959724E+03  0.33506959724E+03  0.00000000000E+00 0. -1.
      99925    2    1    2    0    0  0.64828206188E+02  0.16072789071E+02 -0.14341664066E+03  0.30688766533E+03  0.26296516014E+03 0.  0.
         25    1    1    2    0    0 -0.64828206188E+02 -0.16072789071E+02 -0.64181894476E+02  0.15565299401E+03  0.12509000000E+03 0.  0.
         25    1    3    3    0    0  0.17256288486E+01  0.13411930396E+02 -0.98323735236E+02  0.15968068976E+03  0.12509000000E+03 0.  0.
         25    1    3    3    0    0  0.63102577340E+02  0.26608586746E+01 -0.45092905424E+02  0.14720697557E+03  0.12509000000E+03 0.  0.
<mgrwt>
<rscale>  2 0.41333607E+03</rscale>
<asrwt>0</asrwt>
<pdfrwt beam="1">  1       21 0.18745745E-01 0.41333607E+03</pdfrwt>
<pdfrwt beam="2">  1       21 0.49274940E-01 0.41333607E+03</pdfrwt>
<totfact> 0.96036187E+04</totfact>
</mgrwt>
</event>
<event>
 6    0  0.1539497E-004  0.3916040E+03  0.7546771E-02  0.1046726E+00
         21   -1    0    0  502  501  0.00000000000E+00  0.00000000000E+00  0.11726858941E+04  0.11726858941E+04  0.00000000000E+00 0.  1.
         21   -1    0    0  501  502 -0.00000000000E+00 -0.00000000000E+00 -0.32692824830E+02  0.32692824830E+02  0.00000000000E+00 0.  1.
      99925    2    1    2    0    0  0.14705170756E+01  0.72096594907E+01  0.83748326063E+03  0.87794348253E+03  0.26334844802E+03 0.  0.
         25    1    3    3    0    0  0.36850570765E+02 -0.25079892877E+01  0.35660282978E+03  0.37970691445E+03  0.12509000000E+03 0.  0.
         25    1    1    2    0    0 -0.14705170756E+01 -0.72096594907E+01  0.30250980861E+03  0.32743523637E+03  0.12509000000E+03 0.  0.
         25    1    3    3    0    0 -0.35380053689E+02  0.97176487784E+01  0.48088043084E+03  0.49823656807E+03  0.12509000000E+03 0.  0.
<mgrwt>
<rscale>  2 0.39160396E+03</rscale>
<asrwt>0</asrwt>
<pdfrwt beam="1">  1       21 0.17245378E+00 0.39160396E+03</pdfrwt>
<pdfrwt beam="2">  1       21 0.48077691E-02 0.39160396E+03</pdfrwt>
<totfact> 0.54204501E+04</totfact>
</mgrwt>
</event>
<event>
 6    0  0.1539497E-004  0.3997502E+03  0.7546771E-02  0.1043866E+00
         21   -1    0    0  502  501  0.00000000000E+00  0.00000000000E+00  0.27783200160E+03  0.27783200160E+03  0.00000000000E+00 0.  1.
         21   -1    0    0  501  502 -0.00000000000E+00 -0.00000000000E+00 -0.14379216047E+03  0.14379216047E+03  0.00000000000E+00 0.  1.
      99925    2    1    2    0    0  0.99106074930E+01  0.15081047475E+02  0.13283351471E+03  0.29523341298E+03  0.26304442092E+03 0.  0.
         25    1    1    2    0    0 -0.99106074930E+01 -0.15081047475E+02  0.12063264206E+01  0.12639074910E+03  0.12509000000E+03 0.  0.
         25    1    3    3    0    0 -0.21590207018E+02 -0.12794426054E+02  0.91277994423E+02  0.15687260673E+03  0.12509000000E+03 0.  0.
         25    1    3    3    0    0  0.31500814511E+02  0.27875473529E+02  0.41555520287E+02  0.13836080625E+03  0.12509000000E+03 0.  0.
<mgrwt>
<rscale>  2 0.39975024E+03</rscale>
<asrwt>0</asrwt>
<pdfrwt beam="1">  1       21 0.40857647E-01 0.39975024E+03</pdfrwt>
<pdfrwt beam="2">  1       21 0.21145906E-01 0.39975024E+03</pdfrwt>
<totfact> 0.11330904E+05</totfact>
</mgrwt>
</event>
<event>
 6    0  0.1539497E-004  0.4221225E+03  0.7546771E-02  0.1036378E+00
         21   -1    0    0  502  501  0.00000000000E+00  0.00000000000E+00  0.31988603672E+03  0.31988603672E+03  0.00000000000E+00 0.  1.
         21   -1    0    0  501  502 -0.00000000000E+00 -0.00000000000E+00 -0.13925847306E+03  0.13925847306E+03  0.00000000000E+00 0.  1.
      99925    2    1    2    0    0 -0.62890217624E+02  0.27534427549E+01  0.16779741044E+03  0.31852131876E+03  0.26331938523E+03 0.  0.
         25    1    3    3    0    0 -0.45836992797E+02  0.27262373182E+02  0.52391449609E+02  0.14572796229E+03  0.12509000000E+03 0.  0.
         25    1    3    3    0    0 -0.17053224827E+02 -0.24508930427E+02  0.11540596083E+03  0.17279335648E+03  0.12509000000E+03 0.  0.
         25    1    1    2    0    0  0.62890217624E+02 -0.27534427549E+01  0.12830153227E+02  0.14062319102E+03  0.12509000000E+03 0.  0.
<mgrwt>
<rscale>  2 0.42212245E+03</rscale>
<asrwt>0</asrwt>
<pdfrwt beam="1">  1       21 0.47042064E-01 0.42212245E+03</pdfrwt>
<pdfrwt beam="2">  1       21 0.20479187E-01 0.42212245E+03</pdfrwt>
<totfact> 0.89398753E+04</totfact>
</mgrwt>
</event>
<event>
 6    0  0.1539497E-004  0.4484271E+03  0.7546771E-02  0.1028192E+00
         21   -1    0    0  502  501  0.00000000000E+00  0.00000000000E+00  0.19545975266E+02  0.19545975266E+02  0.00000000000E+00 0.  1.
         21   -1    0    0  501  502 -0.00000000000E+00 -0.00000000000E+00 -0.25719721996E+04  0.25719721996E+04  0.00000000000E+00 0.  1.
      99925    2    1    2    0    0 -0.90120460138E+02 -0.30738742230E+02 -0.13362858568E+04  0.13652590386E+04  0.26306992190E+03 0.  0.
         25    1    3    3    0    0 -0.18128993781E+02 -0.25445008287E+02 -0.77711809753E+03  0.78774117226E+03  0.12509000000E+03 0.  0.
         25    1    1    2    0    0  0.90120460138E+02  0.30738742230E+02 -0.12161403675E+04  0.12262591363E+04  0.12509000000E+03 0.  0.
         25    1    3    3    0    0 -0.71991466357E+02 -0.52937339433E+01 -0.55916775927E+03  0.57751786635E+03  0.12509000000E+03 0.  0.
<mgrwt>
<rscale>  2 0.44842705E+03</rscale>
<asrwt>0</asrwt>
<pdfrwt beam="1">  1       21 0.28744077E-02 0.44842705E+03</pdfrwt>
<pdfrwt beam="2">  1       21 0.37823126E+00 0.44842705E+03</pdfrwt>
<totfact> 0.65694569E+03</totfact>
</mgrwt>
</event>
<event>
 6    0  0.1539497E-004  0.4340246E+03  0.7546771E-02  0.1032596E+00
         21   -1    0    0  502  501  0.00000000000E+00  0.00000000000E+00  0.17098287796E+03  0.17098287796E+03  0.00000000000E+00 0.  1.
         21   -1    0    0  501  502 -0.00000000000E+00 -0.00000000000E+00 -0.27543305843E+03  0.27543305843E+03  0.00000000000E+00 0.  1.
      99925    2    1    2    0    0  0.28416400530E+02 -0.87118024476E+02 -0.57956408647E+02  0.28453258047E+03  0.26306425458E+03 0.  0.
         25    1    3    3    0    0  0.51475048499E+02 -0.62485509630E+02 -0.30176336056E+02  0.15202709919E+03  0.12509000000E+03 0.  0.
         25    1    1    2    0    0 -0.28416400530E+02  0.87118024476E+02 -0.46493771822E+02  0.16188335593E+03  0.12509000000E+03 0.  0.
         25    1    3    3    0    0 -0.23058647969E+02 -0.24632514846E+02 -0.27780072591E+02  0.13250548127E+03  0.12509000000E+03 0.  0.
<mgrwt>
<rscale>  2 0.43402459E+03</rscale>
<asrwt>0</asrwt>
<pdfrwt beam="1">  1       21 0.25144541E-01 0.43402459E+03</pdfrwt>
<pdfrwt beam="2">  1       21 0.40504861E-01 0.43402459E+03</pdfrwt>
<totfact> 0.82055995E+04</totfact>
</mgrwt>
</event>
<event>
 6    0  0.1539497E-004  0.4813296E+03  0.7546771E-02  0.1018770E+00
         21   -1    0    0  502  501  0.00000000000E+00  0.00000000000E+00  0.17139555742E+03  0.17139555742E+03  0.00000000000E+00 0. -1.
         21   -1    0    0  501  502 -0.00000000000E+00 -0.00000000000E+00 -0.33792908357E+03  0.33792908357E+03  0.00000000000E+00 0. -1.
      99925    2    1    2    0    0 -0.45762975009E+02  0.46501072608E+02  0.24233307190E+02  0.27205666498E+03  0.26300375690E+03 0.  0.
         25    1    1    2    0    0  0.45762975009E+02 -0.46501072608E+02 -0.19076683334E+03  0.23726797601E+03  0.12509000000E+03 0.  0.
         25    1    3    3    0    0 -0.12338662623E+02  0.62735017453E+02  0.12446969964E+02  0.14103318819E+03  0.12509000000E+03 0.  0.
         25    1    3    3    0    0 -0.33424312386E+02 -0.16233944845E+02  0.11786337225E+02  0.13102347679E+03  0.12509000000E+03 0.  0.
<mgrwt>
<rscale>  2 0.48132959E+03</rscale>
<asrwt>0</asrwt>
<pdfrwt beam="1">  1       21 0.25205229E-01 0.48132959E+03</pdfrwt>
<pdfrwt beam="2">  1       21 0.49695453E-01 0.48132959E+03</pdfrwt>
<totfact> 0.52711281E+04</totfact>
</mgrwt>
</event>
<event>
 6    0  0.1539497E-004  0.4172405E+03  0.7546771E-02  0.1037968E+00
         21   -1    0    0  502  501  0.00000000000E+00  0.00000000000E+00  0.50502066119E+03  0.50502066119E+03  0.00000000000E+00 0.  1.
         21   -1    0    0  501  502 -0.00000000000E+00 -0.00000000000E+00 -0.86179466860E+02  0.86179466860E+02  0.00000000000E+00 0.  1.
      99925    2    1    2    0    0 -0.12878859055E+02  0.12864908263E+01  0.17374082388E+03  0.31572014735E+03  0.26329796333E+03 0.  0.
         25    1    3    3    0    0  0.75513831435E+01  0.17313862997E+02  0.12814524424E+03  0.18007083317E+03  0.12509000000E+03 0.  0.
         25    1    1    2    0    0  0.12878859055E+02 -0.12864908263E+01  0.24510037045E+03  0.27547998070E+03  0.12509000000E+03 0.  0.
         25    1    3    3    0    0 -0.20430242198E+02 -0.16027372170E+02  0.45595579642E+02  0.13564931418E+03  0.12509000000E+03 0.  0.
<mgrwt>
<rscale>  2 0.41724051E+03</rscale>
<asrwt>0</asrwt>
<pdfrwt beam="1">  1       21 0.74267743E-01 0.41724051E+03</pdfrwt>
<pdfrwt beam="2">  1       21 0.12673451E-01 0.41724051E+03</pdfrwt>
<totfact> 0.80751089E+04</totfact>
</mgrwt>
</event>
<event>
 6    0  0.1539497E-004  0.3941332E+03  0.7546771E-02  0.1045830E+00
         21   -1    0    0  502  501  0.00000000000E+00  0.00000000000E+00  0.10024182068E+04  0.10024182068E+04  0.00000000000E+00 0.  1.
         21   -1    0    0  501  502 -0.00000000000E+00 -0.00000000000E+00 -0.38741558538E+02  0.38741558538E+02  0.00000000000E+00 0.  1.
      99925    2    1    2    0    0  0.22845241939E+02  0.21087358711E+02  0.62473713381E+03  0.67853863477E+03  0.26296693849E+03 0.  0.
         25    1    1    2    0    0 -0.22845241939E+02 -0.21087358711E+02  0.33893951442E+03  0.36262113054E+03  0.12509000000E+03 0.  0.
         25    1    3    3    0    0  0.15528473926E+00  0.43173788107E+02  0.26176529477E+03  0.29331310530E+03  0.12509000000E+03 0.  0.
         25    1    3    3    0    0  0.22689957200E+02 -0.22086429395E+02  0.36297183904E+03  0.38522552947E+03  0.12509000000E+03 0.  0.
<mgrwt>
<rscale>  2 0.39413319E+03</rscale>
<asrwt>0</asrwt>
<pdfrwt beam="1">  1       21 0.14741443E+00 0.39413319E+03</pdfrwt>
<pdfrwt beam="2">  1       21 0.56972887E-02 0.39413319E+03</pdfrwt>
<totfact> 0.62380774E+04</totfact>
</mgrwt>
</event>
<event>
 6    0  0.1539497E-004  0.4475436E+03  0.7546771E-02  0.1028457E+00
         21   -1    0    0  502  501  0.00000000000E+00  0.00000000000E+00  0.86536687161E+03  0.86536687161E+03  0.00000000000E+00 0. -1.
         21   -1    0    0  501  502 -0.00000000000E+00 -0.00000000000E+00 -0.57864276146E+02  0.57864276146E+02  0.00000000000E+00 0. -1.
      99925    2    1    2    0    0 -0.15406607658E+02 -0.99770968117E+02  0.58043666055E+03  0.64502608573E+03  0.26260297927E+03 0.  0.
         25    1    3    3    0    0  0.28358598859E+02 -0.67445343290E+02  0.29587599794E+03  0.32945894845E+03  0.12509000000E+03 0.  0.
         25    1    1    2    0    0  0.15406607658E+02  0.99770968117E+02  0.22706593491E+03  0.27820506202E+03  0.12509000000E+03 0.  0.
         25    1    3    3    0    0 -0.43765206516E+02 -0.32325624827E+02  0.28456066261E+03  0.31556713727E+03  0.12509000000E+03 0.  0.
<mgrwt>
<rscale>  2 0.44754364E+03</rscale>
<asrwt>0</asrwt>
<pdfrwt beam="1">  1       21 0.12725983E+00 0.44754364E+03</pdfrwt>
<pdfrwt beam="2">  1       21 0.85094529E-02 0.44754364E+03</pdfrwt>
<totfact> 0.44800676E+04</totfact>
</mgrwt>
</event>
<event>
 6    0  0.1539497E-004  0.3910427E+03  0.7546771E-02  0.1046926E+00
         21   -1    0    0  502  501  0.00000000000E+00  0.00000000000E+00  0.93546743458E+02  0.93546743458E+02  0.00000000000E+00 0. -1.
         21   -1    0    0  501  502 -0.00000000000E+00 -0.00000000000E+00 -0.40865763938E+03  0.40865763938E+03  0.00000000000E+00 0. -1.
      99925    2    1    2    0    0  0.32091069167E+01  0.50643686104E+01 -0.24270274012E+03  0.35754479856E+03  0.26248374563E+03 0.  0.
         25    1    1    2    0    0 -0.32091069167E+01 -0.50643686104E+01 -0.72408155801E+02  0.14465958428E+03  0.12509000000E+03 0.  0.
         25    1    3    3    0    0  0.65114941275E+01  0.12032899704E+02 -0.69494738631E+02  0.14375053749E+03  0.12509000000E+03 0.  0.
         25    1    3    3    0    0 -0.33023872107E+01 -0.69685310936E+01 -0.17320800149E+03  0.21379426107E+03  0.12509000000E+03 0.  0.
<mgrwt>
<rscale>  2 0.39104266E+03</rscale>
<asrwt>0</asrwt>
<pdfrwt beam="1">  1       21 0.13756874E-01 0.39104266E+03</pdfrwt>
<pdfrwt beam="2">  1       21 0.60096712E-01 0.39104266E+03</pdfrwt>
<totfact> 0.11198327E+05</totfact>
</mgrwt>
</event>
<event>
 6    0  0.1539497E-004  0.4594959E+03  0.7546771E-02  0.1024928E+00
         21   -1    0    0  502  501  0.00000000000E+00  0.00000000000E+00  0.25606457114E+03  0.25606457114E+03  0.00000000000E+00 0. -1.
         21   -1    0    0  501  502 -0.00000000000E+00 -0.00000000000E+00 -0.20613593263E+03  0.20613593263E+03  0.00000000000E+00 0. -1.
      99925    2    1    2    0    0 -0.44235408361E+02 -0.31060674239E+02  0.13603883123E+03  0.30100493861E+03  0.26301306551E+03 0.  0.
         25    1    3    3    0    0 -0.40311056687E+02  0.15236370145E+02  0.46195214174E+02  0.14013791128E+03  0.12509000000E+03 0.  0.
         25    1    3    3    0    0 -0.39243516744E+01 -0.46297044384E+02  0.89843617061E+02  0.16086702733E+03  0.12509000000E+03 0.  0.
         25    1    1    2    0    0  0.44235408361E+02  0.31060674239E+02 -0.86110192724E+02  0.16119556516E+03  0.12509000000E+03 0.  0.
<mgrwt>
<rscale>  2 0.45949585E+03</rscale>
<asrwt>0</asrwt>
<pdfrwt beam="1">  1       21 0.37656554E-01 0.45949585E+03</pdfrwt>
<pdfrwt beam="2">  1       21 0.30314108E-01 0.45949585E+03</pdfrwt>
<totfact> 0.65635296E+04</totfact>
</mgrwt>
</event>
<event>
 6    0  0.1539497E-004  0.4656152E+03  0.7546771E-02  0.1023165E+00
         21   -1    0    0  502  501  0.00000000000E+00  0.00000000000E+00  0.13061623792E+03  0.13061623792E+03  0.00000000000E+00 0.  1.
         21   -1    0    0  501  502 -0.00000000000E+00 -0.00000000000E+00 -0.41495138015E+03  0.41495138015E+03  0.00000000000E+00 0.  1.
      99925    2    1    2    0    0 -0.57670192773E+02  0.18019043718E+02 -0.51770704162E+02  0.27467231906E+03  0.26289568269E+03 0.  0.
         25    1    3    3    0    0 -0.14206006946E+02 -0.12157455092E+02 -0.57045782761E+02  0.13874921181E+03  0.12509000000E+03 0.  0.
         25    1    1    2    0    0  0.57670192773E+02 -0.18019043718E+02 -0.23256443807E+03  0.27089529901E+03  0.12509000000E+03 0.  0.
         25    1    3    3    0    0 -0.43464185827E+02  0.30176498810E+02  0.52750785996E+01  0.13592310725E+03  0.12509000000E+03 0.  0.
<mgrwt>
<rscale>  2 0.46561524E+03</rscale>
<asrwt>0</asrwt>
<pdfrwt beam="1">  1       21 0.19208271E-01 0.46561524E+03</pdfrwt>
<pdfrwt beam="2">  1       21 0.61022261E-01 0.46561524E+03</pdfrwt>
<totfact> 0.57199707E+04</totfact>
</mgrwt>
</event>
<event>
 6    0  0.1539497E-004  0.5065255E+03  0.7546771E-02  0.1012090E+00
         21   -1    0    0  502  501  0.00000000000E+00  0.00000000000E+00  0.13444893134E+04  0.13444893134E+04  0.00000000000E+00 0. -1.
         21   -1    0    0  501  502 -0.00000000000E+00 -0.00000000000E+00 -0.47707342374E+02  0.47707342374E+02  0.00000000000E+00 0. -1.
      99925    2    1    2    0    0 -0.43258085049E+02 -0.37070000278E+01  0.11963642852E+04  0.12260153587E+04  0.26446389752E+03 0.  0.
         25    1    3    3    0    0 -0.62428668733E+01 -0.41074221668E+02  0.55219938763E+03  0.56771272389E+03  0.12509000000E+03 0.  0.
         25    1    3    3    0    0 -0.37015218175E+02  0.37367221640E+02  0.64416489761E+03  0.65830263484E+03  0.12509000000E+03 0.  0.
         25    1    1    2    0    0  0.43258085049E+02  0.37070000278E+01  0.10041768583E+03  0.16618129708E+03  0.12509000000E+03 0.  0.
<mgrwt>
<rscale>  2 0.50652547E+03</rscale>
<asrwt>0</asrwt>
<pdfrwt beam="1">  1       21 0.19771899E+00 0.50652547E+03</pdfrwt>
<pdfrwt beam="2">  1       21 0.70157865E-02 0.50652547E+03</pdfrwt>
<totfact> 0.18122746E+04</totfact>
</mgrwt>
</event>
<event>
 6    0  0.1539497E-004  0.5253374E+03  0.7546771E-02  0.1007369E+00
         21   -1    0    0  502  501  0.00000000000E+00  0.00000000000E+00  0.13235879427E+04  0.13235879427E+04  0.00000000000E+00 0. -1.
         21   -1    0    0  501  502 -0.00000000000E+00 -0.00000000000E+00 -0.52127135856E+02  0.52127135856E+02  0.00000000000E+00 0. -1.
      99925    2    1    2    0    0 -0.35928234317E+02  0.16159315402E+03  0.86943211228E+03  0.92330181085E+03  0.26300351822E+03 0.  0.
         25    1    3    3    0    0  0.13552355415E+02  0.61928077858E+02  0.46195724357E+03  0.48277402183E+03  0.12509000000E+03 0.  0.
         25    1    1    2    0    0  0.35928234317E+02 -0.16159315402E+03  0.40202869453E+03  0.45241326768E+03  0.12509000000E+03 0.  0.
         25    1    3    3    0    0 -0.49480589733E+02  0.99665076159E+02  0.40747486871E+03  0.44052778902E+03  0.12509000000E+03 0.  0.
<mgrwt>
<rscale>  2 0.52533741E+03</rscale>
<asrwt>0</asrwt>
<pdfrwt beam="1">  1       21 0.19464526E+00 0.52533741E+03</pdfrwt>
<pdfrwt beam="2">  1       21 0.76657561E-02 0.52533741E+03</pdfrwt>
<totfact> 0.16170774E+04</totfact>
</mgrwt>
</event>
<event>
 6    0  0.1539497E-004  0.4619911E+03  0.7546771E-02  0.1024205E+00
         21   -1    0    0  502  501  0.00000000000E+00  0.00000000000E+00  0.14291348797E+03  0.14291348797E+03  0.00000000000E+00 0.  1.
         21   -1    0    0  501  502 -0.00000000000E+00 -0.00000000000E+00 -0.37336533851E+03  0.37336533851E+03  0.00000000000E+00 0.  1.
      99925    2    1    2    0    0 -0.10829797241E+03 -0.50666884555E+02 -0.14631275172E+03  0.32386656058E+03  0.26303335098E+03 0.  0.
         25    1    1    2    0    0  0.10829797241E+03  0.50666884555E+02 -0.84139098824E+02  0.19241226590E+03  0.12509000000E+03 0.  0.
         25    1    3    3    0    0 -0.96189801124E+02 -0.25512338691E+02 -0.68324313948E+02  0.17383635190E+03  0.12509000000E+03 0.  0.
         25    1    3    3    0    0 -0.12108171284E+02 -0.25154545864E+02 -0.77988437768E+02  0.15003020867E+03  0.12509000000E+03 0.  0.
<mgrwt>
<rscale>  2 0.46199109E+03</rscale>
<asrwt>0</asrwt>
<pdfrwt beam="1">  1       21 0.21016690E-01 0.46199109E+03</pdfrwt>
<pdfrwt beam="2">  1       21 0.54906667E-01 0.46199109E+03</pdfrwt>
<totfact> 0.60703159E+04</totfact>
</mgrwt>
</event>
<event>
 6    0  0.1539497E-004  0.4457384E+03  0.7546771E-02  0.1029001E+00
         21   -1    0    0  502  501  0.00000000000E+00  0.00000000000E+00  0.22400129070E+03  0.22400129070E+03  0.00000000000E+00 0.  1.
         21   -1    0    0  501  502 -0.00000000000E+00 -0.00000000000E+00 -0.22174283008E+03  0.22174283008E+03  0.00000000000E+00 0.  1.
      99925    2    1    2    0    0  0.74105590165E+02 -0.61492265495E+02  0.41259030451E+02  0.28313572691E+03  0.26304105202E+03 0.  0.
         25    1    3    3    0    0  0.38892614267E+02 -0.54918843281E+02 -0.11980225635E+02  0.14254735598E+03  0.12509000000E+03 0.  0.
         25    1    3    3    0    0  0.35212975897E+02 -0.65734222133E+01  0.53239256086E+02  0.14058837093E+03  0.12509000000E+03 0.  0.
         25    1    1    2    0    0 -0.74105590165E+02  0.61492265495E+02 -0.39000569838E+02  0.16260839387E+03  0.12509000000E+03 0.  0.
<mgrwt>
<rscale>  2 0.44573840E+03</rscale>
<asrwt>0</asrwt>
<pdfrwt beam="1">  1       21 0.32941366E-01 0.44573840E+03</pdfrwt>
<pdfrwt beam="2">  1       21 0.32609240E-01 0.44573840E+03</pdfrwt>
<totfact> 0.74590842E+04</totfact>
</mgrwt>
</event>
<event>
 6    0  0.1539497E-004  0.4250469E+03  0.7546771E-02  0.1035436E+00
         21   -1    0    0  502  501  0.00000000000E+00  0.00000000000E+00  0.25879499184E+03  0.25879499184E+03  0.00000000000E+00 0. -1.
         21   -1    0    0  501  502 -0.00000000000E+00 -0.00000000000E+00 -0.17452511062E+03  0.17452511062E+03  0.00000000000E+00 0. -1.
      99925    2    1    2    0    0 -0.79342210819E+02  0.14147578132E+02  0.70235649683E+02  0.28385502914E+03  0.26295492142E+03 0.  0.
         25    1    3    3    0    0 -0.98921280153E+01  0.34882487964E+02  0.38939815586E+02  0.13593549758E+03  0.12509000000E+03 0.  0.
         25    1    1    2    0    0  0.79342210819E+02 -0.14147578132E+02  0.14034231538E+02  0.14946507331E+03  0.12509000000E+03 0.  0.
         25    1    3    3    0    0 -0.69450082804E+02 -0.20734909832E+02  0.31295834097E+02  0.14791953157E+03  0.12509000000E+03 0.  0.
<mgrwt>
<rscale>  2 0.42504694E+03</rscale>
<asrwt>0</asrwt>
<pdfrwt beam="1">  1       21 0.38058087E-01 0.42504694E+03</pdfrwt>
<pdfrwt beam="2">  1       21 0.25665457E-01 0.42504694E+03</pdfrwt>
<totfact> 0.89761647E+04</totfact>
</mgrwt>
</event>
<event>
 6    0  0.1539497E-004  0.3992186E+03  0.7546771E-02  0.1044051E+00
         21   -1    0    0  502  501  0.00000000000E+00  0.00000000000E+00  0.12204764081E+04  0.12204764081E+04  0.00000000000E+00 0.  1.
         21   -1    0    0  501  502 -0.00000000000E+00 -0.00000000000E+00 -0.32646163530E+02  0.32646163530E+02  0.00000000000E+00 0.  1.
      99925    2    1    2    0    0 -0.20355537243E+02  0.20892171558E+02  0.69028275513E+03  0.73926282124E+03  0.26299887091E+03 0.  0.
         25    1    1    2    0    0  0.20355537243E+02 -0.20892171558E+02  0.49754748946E+03  0.51385975042E+03  0.12509000000E+03 0.  0.
         25    1    3    3    0    0  0.15521885372E+02  0.40738853406E+02  0.36903005962E+03  0.39208580197E+03  0.12509000000E+03 0.  0.
         25    1    3    3    0    0 -0.35877422615E+02 -0.19846681848E+02  0.32125269552E+03  0.34717701927E+03  0.12509000000E+03 0.  0.
<mgrwt>
<rscale>  2 0.39921860E+03</rscale>
<asrwt>0</asrwt>
<pdfrwt beam="1">  1       21 0.17948179E+00 0.39921860E+03</pdfrwt>
<pdfrwt beam="2">  1       21 0.48009072E-02 0.39921860E+03</pdfrwt>
<totfact> 0.48319390E+04</totfact>
</mgrwt>
</event>
<event>
 6    0  0.1539497E-004  0.4097945E+03  0.7546771E-02  0.1040440E+00
         21   -1    0    0  502  501  0.00000000000E+00  0.00000000000E+00  0.31617948567E+03  0.31617948567E+03  0.00000000000E+00 0.  1.
         21   -1    0    0  501  502 -0.00000000000E+00 -0.00000000000E+00 -0.13278178385E+03  0.13278178385E+03  0.00000000000E+00 0.  1.
      99925    2    1    2    0    0  0.48672828170E+02  0.11821928595E+02  0.16097006605E+03  0.31236218774E+03  0.26296382254E+03 0.  0.
         25    1    3    3    0    0  0.49156632806E+02 -0.24997405475E+02  0.92718055692E+02  0.16518290099E+03  0.12509000000E+03 0.  0.
         25    1    3    3    0    0 -0.48380463517E+00  0.36819334070E+02  0.68252010361E+02  0.14717928674E+03  0.12509000000E+03 0.  0.
         25    1    1    2    0    0 -0.48672828170E+02 -0.11821928595E+02  0.22427635761E+02  0.13659908178E+03  0.12509000000E+03 0.  0.
<mgrwt>
<rscale>  2 0.40979447E+03</rscale>
<asrwt>0</asrwt>
<pdfrwt beam="1">  1       21 0.46496983E-01 0.40979447E+03</pdfrwt>
<pdfrwt beam="2">  1       21 0.19526733E-01 0.40979447E+03</pdfrwt>
<totfact> 0.10054572E+05</totfact>
</mgrwt>
</event>
<event>
 6    0  0.1539497E-004  0.4132190E+03  0.7546771E-02  0.1039296E+00
         21   -1    0    0  502  501  0.00000000000E+00  0.00000000000E+00  0.12327048282E+03  0.12327048282E+03  0.00000000000E+00 0. -1.
         21   -1    0    0  501  502 -0.00000000000E+00 -0.00000000000E+00 -0.34629127470E+03  0.34629127470E+03  0.00000000000E+00 0. -1.
      99925    2    1    2    0    0 -0.55271001981E+02  0.70122620248E+01 -0.10417635258E+03  0.28824555766E+03  0.26292343676E+03 0.  0.
         25    1    3    3    0    0  0.33252352916E+01  0.24686880716E+02 -0.67170776487E+02  0.14415242136E+03  0.12509000000E+03 0.  0.
         25    1    3    3    0    0 -0.58596237272E+02 -0.17674618691E+02 -0.37005576094E+02  0.14409313631E+03  0.12509000000E+03 0.  0.
         25    1    1    2    0    0  0.55271001981E+02 -0.70122620248E+01 -0.11884443929E+03  0.18131619986E+03  0.12509000000E+03 0.  0.
<mgrwt>
<rscale>  2 0.41321903E+03</rscale>
<asrwt>0</asrwt>
<pdfrwt beam="1">  1       21 0.18128012E-01 0.41321903E+03</pdfrwt>
<pdfrwt beam="2">  1       21 0.50925187E-01 0.41321903E+03</pdfrwt>
<totfact> 0.95386075E+04</totfact>
</mgrwt>
</event>
<event>
 6    0  0.1539497E-004  0.4288248E+03  0.7546771E-02  0.1034232E+00
         21   -1    0    0  502  501  0.00000000000E+00  0.00000000000E+00  0.33500129937E+03  0.33500129937E+03  0.00000000000E+00 0.  1.
         21   -1    0    0  501  502 -0.00000000000E+00 -0.00000000000E+00 -0.13723136926E+03  0.13723136926E+03  0.00000000000E+00 0.  1.
      99925    2    1    2    0    0 -0.59416799325E+02  0.32730624839E+02  0.18661744939E+03  0.32949677345E+03  0.26294562452E+03 0.  0.
         25    1    3    3    0    0 -0.68421609378E+02  0.90354445088E+01  0.84027291707E+02  0.16574453155E+03  0.12509000000E+03 0.  0.
         25    1    3    3    0    0  0.90048100536E+01  0.23695180331E+02  0.10259015768E+03  0.16375224190E+03  0.12509000000E+03 0.  0.
         25    1    1    2    0    0  0.59416799325E+02 -0.32730624839E+02  0.11152480713E+02  0.14273589517E+03  0.12509000000E+03 0.  0.
<mgrwt>
<rscale>  2 0.42882485E+03</rscale>
<asrwt>0</asrwt>
<pdfrwt beam="1">  1       21 0.49264897E-01 0.42882485E+03</pdfrwt>
<pdfrwt beam="2">  1       21 0.20181084E-01 0.42882485E+03</pdfrwt>
<totfact> 0.83273524E+04</totfact>
</mgrwt>
</event>
<event>
 6    0  0.1539497E-004  0.4156296E+03  0.7546771E-02  0.1038498E+00
         21   -1    0    0  502  501  0.00000000000E+00  0.00000000000E+00  0.11921051896E+04  0.11921051896E+04  0.00000000000E+00 0.  1.
         21   -1    0    0  501  502 -0.00000000000E+00 -0.00000000000E+00 -0.36227496167E+02  0.36227496167E+02  0.00000000000E+00 0.  1.
      99925    2    1    2    0    0  0.50077963535E+02 -0.10729958201E+02  0.61949143664E+03  0.67517750048E+03  0.26357557294E+03 0.  0.
         25    1    3    3    0    0 -0.98647217479E+00 -0.16640711328E+02  0.22267831595E+03  0.25595121976E+03  0.12509000000E+03 0.  0.
         25    1    1    2    0    0 -0.50077963535E+02  0.10729958201E+02  0.53638625684E+03  0.55315518534E+03  0.12509000000E+03 0.  0.
         25    1    3    3    0    0  0.51064435710E+02  0.59107531271E+01  0.39681312069E+03  0.41922628072E+03  0.12509000000E+03 0.  0.
<mgrwt>
<rscale>  2 0.41562958E+03</rscale>
<asrwt>0</asrwt>
<pdfrwt beam="1">  1       21 0.17530956E+00 0.41562958E+03</pdfrwt>
<pdfrwt beam="2">  1       21 0.53275737E-02 0.41562958E+03</pdfrwt>
<totfact> 0.43015134E+04</totfact>
</mgrwt>
</event>
<event>
 6    0  0.1539497E-004  0.4211371E+03  0.7546771E-02  0.1036697E+00
         21   -1    0    0  502  501  0.00000000000E+00  0.00000000000E+00  0.34930663693E+03  0.34930663693E+03  0.00000000000E+00 0. -1.
         21   -1    0    0  501  502 -0.00000000000E+00 -0.00000000000E+00 -0.12693461940E+03  0.12693461940E+03  0.00000000000E+00 0. -1.
      99925    2    1    2    0    0 -0.30060548794E+02  0.55565184484E+02  0.94588060135E+02  0.28659059278E+03  0.26305159272E+03 0.  0.
         25    1    3    3    0    0 -0.36074933242E+02  0.14380967859E+02  0.81135032875E+02  0.15407340687E+03  0.12509000000E+03 0.  0.
         25    1    3    3    0    0  0.60143844483E+01  0.41184216626E+02  0.13453027260E+02  0.13251718591E+03  0.12509000000E+03 0.  0.
         25    1    1    2    0    0  0.30060548794E+02 -0.55565184484E+02  0.12778395739E+03  0.18965066356E+03  0.12509000000E+03 0.  0.
<mgrwt>
<rscale>  2 0.42113706E+03</rscale>
<asrwt>0</asrwt>
<pdfrwt beam="1">  1       21 0.51368623E-01 0.42113706E+03</pdfrwt>
<pdfrwt beam="2">  1       21 0.18666856E-01 0.42113706E+03</pdfrwt>
<totfact> 0.88468468E+04</totfact>
</mgrwt>
</event>
<event>
 6    0  0.1539497E-004  0.4210921E+03  0.7546771E-02  0.1036711E+00
         21   -1    0    0  502  501  0.00000000000E+00  0.00000000000E+00  0.13485227110E+03  0.13485227110E+03  0.00000000000E+00 0. -1.
         21   -1    0    0  501  502 -0.00000000000E+00 -0.00000000000E+00 -0.32872744454E+03  0.32872744454E+03  0.00000000000E+00 0. -1.
      99925    2    1    2    0    0  0.65126720137E+02 -0.19655380944E+02 -0.86066039062E+02  0.28497920827E+03  0.26301703821E+03 0.  0.
         25    1    3    3    0    0 -0.49743617475E+01  0.27809186684E+01 -0.53855011174E+02  0.13630975061E+03  0.12509000000E+03 0.  0.
         25    1    1    2    0    0 -0.65126720137E+02  0.19655380944E+02 -0.10780913438E+03  0.17860050737E+03  0.12509000000E+03 0.  0.
         25    1    3    3    0    0  0.70101081885E+02 -0.22436299612E+02 -0.32211027889E+02  0.14866945765E+03  0.12509000000E+03 0.  0.
<mgrwt>
<rscale>  2 0.42109212E+03</rscale>
<asrwt>0</asrwt>
<pdfrwt beam="1">  1       21 0.19831217E-01 0.42109212E+03</pdfrwt>
<pdfrwt beam="2">  1       21 0.48342270E-01 0.42109212E+03</pdfrwt>
<totfact> 0.89744725E+04</totfact>
</mgrwt>
</event>
<event>
 6    0  0.1539497E-004  0.4197839E+03  0.7546771E-02  0.1037137E+00
         21   -1    0    0  502  501  0.00000000000E+00  0.00000000000E+00  0.52045825626E+03  0.52045825626E+03  0.00000000000E+00 0.  1.
         21   -1    0    0  501  502 -0.00000000000E+00 -0.00000000000E+00 -0.84645832153E+02  0.84645832153E+02  0.00000000000E+00 0.  1.
      99925    2    1    2    0    0 -0.28931142945E+02 -0.20934194448E+02  0.18813272691E+03  0.32533991624E+03  0.26301499317E+03 0.  0.
         25    1    1    2    0    0  0.28931142945E+02  0.20934194448E+02  0.24767969720E+03  0.27976417217E+03  0.12509000000E+03 0.  0.
         25    1    3    3    0    0  0.94765684085E+01  0.15999744867E+02  0.66374747076E+02  0.14282476093E+03  0.12509000000E+03 0.  0.
         25    1    3    3    0    0 -0.38407711354E+02 -0.36933939315E+02  0.12175797984E+03  0.18251515531E+03  0.12509000000E+03 0.  0.
<mgrwt>
<rscale>  2 0.41978386E+03</rscale>
<asrwt>0</asrwt>
<pdfrwt beam="1">  1       21 0.76537977E-01 0.41978386E+03</pdfrwt>
<pdfrwt beam="2">  1       21 0.12447917E-01 0.41978386E+03</pdfrwt>
<totfact> 0.77864427E+04</totfact>
</mgrwt>
</event>
<event>
 6    0  0.1539497E-004  0.4148841E+03  0.7546771E-02  0.1038744E+00
         21   -1    0    0  502  501  0.00000000000E+00  0.00000000000E+00  0.61929151145E+03  0.61929151145E+03  0.00000000000E+00 0.  1.
         21   -1    0    0  501  502 -0.00000000000E+00 -0.00000000000E+00 -0.69486197295E+02  0.69486197295E+02  0.00000000000E+00 0.  1.
      99925    2    1    2    0    0 -0.25359984968E+02 -0.63991367139E+02  0.34869719927E+03  0.44214031118E+03  0.26298344831E+03 0.  0.
         25    1    3    3    0    0  0.14320261177E+02 -0.24191644039E+02  0.12074288438E+03  0.17611546709E+03  0.12509000000E+03 0.  0.
         25    1    1    2    0    0  0.25359984968E+02  0.63991367139E+02  0.20110811488E+03  0.24663739757E+03  0.12509000000E+03 0.  0.
         25    1    3    3    0    0 -0.39680246145E+02 -0.39799723100E+02  0.22795431489E+03  0.26602484408E+03  0.12509000000E+03 0.  0.
<mgrwt>
<rscale>  2 0.41488414E+03</rscale>
<asrwt>0</asrwt>
<pdfrwt beam="1">  1       21 0.91072278E-01 0.41488414E+03</pdfrwt>
<pdfrwt beam="2">  1       21 0.10218559E-01 0.41488414E+03</pdfrwt>
<totfact> 0.74362050E+04</totfact>
</mgrwt>
</event>
<event>
 6    0  0.1539497E-004  0.5915392E+03  0.7546771E-02  0.9923117E-01
         21   -1    0    0  502  501  0.00000000000E+00  0.00000000000E+00  0.20865990045E+03  0.20865990045E+03  0.00000000000E+00 0.  1.
         21   -1    0    0  501  502 -0.00000000000E+00 -0.00000000000E+00 -0.41924519538E+03  0.41924519538E+03  0.00000000000E+00 0.  1.
      99925    2    1    2    0    0 -0.33146274230E+02  0.21345108225E+03 -0.14488969566E+03  0.36978988924E+03  0.26285261700E+03 0.  0.
         25    1    3    3    0    0 -0.38236258115E+02  0.15137225607E+03 -0.94368626988E+02  0.22119791410E+03  0.12509000000E+03 0.  0.
         25    1    3    3    0    0  0.50899838850E+01  0.62078826183E+02 -0.50521068675E+02  0.14859197514E+03  0.12509000000E+03 0.  0.
         25    1    1    2    0    0  0.33146274230E+02 -0.21345108225E+03 -0.65695599266E+02  0.25811520659E+03  0.12509000000E+03 0.  0.
<mgrwt>
<rscale>  2 0.59153922E+03</rscale>
<asrwt>0</asrwt>
<pdfrwt beam="1">  1       21 0.30685280E-01 0.59153922E+03</pdfrwt>
<pdfrwt beam="2">  1       21 0.61653704E-01 0.59153922E+03</pdfrwt>
<totfact> 0.21896804E+04</totfact>
</mgrwt>
</event>
<event>
 6    0  0.1539497E-004  0.4573678E+03  0.7546771E-02  0.1025547E+00
         21   -1    0    0  502  501  0.00000000000E+00  0.00000000000E+00  0.55777982430E+02  0.55777982430E+02  0.00000000000E+00 0.  1.
         21   -1    0    0  501  502 -0.00000000000E+00 -0.00000000000E+00 -0.93757990922E+03  0.93757990922E+03  0.00000000000E+00 0.  1.
      99925    2    1    2    0    0 -0.99617326169E+02  0.40797854554E+02 -0.46353799490E+03  0.54371325260E+03  0.26299914776E+03 0.  0.
         25    1    1    2    0    0  0.99617326169E+02 -0.40797854554E+02 -0.41826393189E+03  0.44964463905E+03  0.12509000000E+03 0.  0.
         25    1    3    3    0    0 -0.13330546804E+02  0.33366084005E+02 -0.24510535690E+03  0.27751602318E+03  0.12509000000E+03 0.  0.
         25    1    3    3    0    0 -0.86286779365E+02  0.74317705488E+01 -0.21843263800E+03  0.26619722942E+03  0.12509000000E+03 0.  0.
<mgrwt>
<rscale>  2 0.45736775E+03</rscale>
<asrwt>0</asrwt>
<pdfrwt beam="1">  1       21 0.82026451E-02 0.45736775E+03</pdfrwt>
<pdfrwt beam="2">  1       21 0.13787939E+00 0.45736775E+03</pdfrwt>
<totfact> 0.38705356E+04</totfact>
</mgrwt>
</event>
<event>
 6    0  0.1539497E-004  0.4238163E+03  0.7546771E-02  0.1035831E+00
         21   -1    0    0  502  501  0.00000000000E+00  0.00000000000E+00  0.77821267886E+02  0.77821267886E+02  0.00000000000E+00 0.  1.
         21   -1    0    0  501  502 -0.00000000000E+00 -0.00000000000E+00 -0.57702811190E+03  0.57702811190E+03  0.00000000000E+00 0.  1.
      99925    2    1    2    0    0 -0.28928195446E+02  0.55517439507E+02 -0.40184963838E+03  0.48442355965E+03  0.26318059711E+03 0.  0.
         25    1    1    2    0    0  0.28928195446E+02 -0.55517439507E+02 -0.97357205643E+02  0.17042582014E+03  0.12509000000E+03 0.  0.
         25    1    3    3    0    0 -0.32412039612E+02  0.33678065551E+02 -0.14049290790E+03  0.19383115767E+03  0.12509000000E+03 0.  0.
         25    1    3    3    0    0  0.34838441667E+01  0.21839373956E+02 -0.26135673047E+03  0.29059240198E+03  0.12509000000E+03 0.  0.
<mgrwt>
<rscale>  2 0.42381628E+03</rscale>
<asrwt>0</asrwt>
<pdfrwt beam="1">  1       21 0.11444304E-01 0.42381628E+03</pdfrwt>
<pdfrwt beam="2">  1       21 0.84857075E-01 0.42381628E+03</pdfrwt>
<totfact> 0.71423523E+04</totfact>
</mgrwt>
</event>
<event>
 6    0  0.1539497E-004  0.3965711E+03  0.7546771E-02  0.1044973E+00
         21   -1    0    0  502  501  0.00000000000E+00  0.00000000000E+00  0.31985775002E+03  0.31985775002E+03  0.00000000000E+00 0. -1.
         21   -1    0    0  501  502 -0.00000000000E+00 -0.00000000000E+00 -0.12292076677E+03  0.12292076677E+03  0.00000000000E+00 0. -1.
      99925    2    1    2    0    0 -0.17276387314E+02  0.27631361148E+01  0.94107177028E+02  0.27990560429E+03  0.26303018470E+03 0.  0.
         25    1    1    2    0    0  0.17276387314E+02 -0.27631361148E+01  0.10282980622E+03  0.16287291250E+03  0.12509000000E+03 0.  0.
         25    1    3    3    0    0  0.14887729007E+02  0.18602578689E+01  0.11330706659E+02  0.12649505148E+03  0.12509000000E+03 0.  0.
         25    1    3    3    0    0 -0.32164116321E+02  0.90287824595E+00  0.82776470368E+02  0.15341055281E+03  0.12509000000E+03 0.  0.
<mgrwt>
<rscale>  2 0.39657110E+03</rscale>
<asrwt>0</asrwt>
<pdfrwt beam="1">  1       21 0.47037904E-01 0.39657110E+03</pdfrwt>
<pdfrwt beam="2">  1       21 0.18076583E-01 0.39657110E+03</pdfrwt>
<totfact> 0.11382365E+05</totfact>
</mgrwt>
</event>
<event>
 6    0  0.1539497E-004  0.3920038E+03  0.7546771E-02  0.1046584E+00
         21   -1    0    0  502  501  0.00000000000E+00  0.00000000000E+00  0.68773863888E+03  0.68773863888E+03  0.00000000000E+00 0.  1.
         21   -1    0    0  501  502 -0.00000000000E+00 -0.00000000000E+00 -0.55859524990E+02  0.55859524990E+02  0.00000000000E+00 0.  1.
      99925    2    1    2    0    0 -0.31723782917E+01  0.25902316451E+02  0.42581058518E+03  0.50112601989E+03  0.26292896261E+03 0.  0.
         25    1    3    3    0    0 -0.12136839328E+02  0.42062687846E+02  0.26736561624E+03  0.29840987488E+03  0.12509000000E+03 0.  0.
         25    1    1    2    0    0  0.31723782917E+01 -0.25902316451E+02  0.20606852871E+03  0.24247214398E+03  0.12509000000E+03 0.  0.
         25    1    3    3    0    0  0.89644610367E+01 -0.16160371395E+02  0.15844496893E+03  0.20271614500E+03  0.12509000000E+03 0.  0.
<mgrwt>
<rscale>  2 0.39200385E+03</rscale>
<asrwt>0</asrwt>
<pdfrwt beam="1">  1       21 0.10113803E+00 0.39200385E+03</pdfrwt>
<pdfrwt beam="2">  1       21 0.82146364E-02 0.39200385E+03</pdfrwt>
<totfact> 0.85839876E+04</totfact>
</mgrwt>
</event>
<event>
 6    0  0.1539497E-004  0.4768054E+03  0.7546771E-02  0.1020017E+00
         21   -1    0    0  502  501  0.00000000000E+00  0.00000000000E+00  0.79799653607E+02  0.79799653607E+02  0.00000000000E+00 0.  1.
         21   -1    0    0  501  502 -0.00000000000E+00 -0.00000000000E+00 -0.71223170066E+03  0.71223170066E+03  0.00000000000E+00 0.  1.
      99925    2    1    2    0    0 -0.29972861708E+02 -0.69936405106E+02 -0.57108339655E+03  0.63328426542E+03  0.26291299286E+03 0.  0.
         25    1    3    3    0    0  0.18292024106E+02 -0.10218203118E+02 -0.25651181729E+03  0.28615525564E+03  0.12509000000E+03 0.  0.
         25    1    3    3    0    0 -0.48264885814E+02 -0.59718201988E+02 -0.31457157927E+03  0.34712900978E+03  0.12509000000E+03 0.  0.
         25    1    1    2    0    0  0.29972861708E+02  0.69936405106E+02 -0.61348650497E+02  0.15874708884E+03  0.12509000000E+03 0.  0.
<mgrwt>
<rscale>  2 0.47680538E+03</rscale>
<asrwt>0</asrwt>
<pdfrwt beam="1">  1       21 0.11735243E-01 0.47680538E+03</pdfrwt>
<pdfrwt beam="2">  1       21 0.10473995E+00 0.47680538E+03</pdfrwt>
<totfact> 0.40723344E+04</totfact>
</mgrwt>
</event>
<event>
 6    0  0.1539497E-004  0.4347787E+03  0.7546771E-02  0.1032361E+00
         21   -1    0    0  502  501  0.00000000000E+00  0.00000000000E+00  0.13060584715E+03  0.13060584715E+03  0.00000000000E+00 0.  1.
         21   -1    0    0  501  502 -0.00000000000E+00 -0.00000000000E+00 -0.36183782947E+03  0.36183782947E+03  0.00000000000E+00 0.  1.
      99925    2    1    2    0    0  0.68563304419E+01 -0.25507827537E+02 -0.47472442303E+02  0.26858493727E+03  0.26303341464E+03 0.  0.
         25    1    1    2    0    0 -0.68563304419E+01  0.25507827537E+02 -0.18375954002E+03  0.22385873934E+03  0.12509000000E+03 0.  0.
         25    1    3    3    0    0  0.22318362563E+02  0.15724326537E+02 -0.92383290755E+00  0.12803798389E+03  0.12509000000E+03 0.  0.
         25    1    3    3    0    0 -0.15462032121E+02 -0.41232154073E+02 -0.46548609395E+02  0.14054695338E+03  0.12509000000E+03 0.  0.
<mgrwt>
<rscale>  2 0.43477873E+03</rscale>
<asrwt>0</asrwt>
<pdfrwt beam="1">  1       21 0.19206742E-01 0.43477873E+03</pdfrwt>
<pdfrwt beam="2">  1       21 0.53211445E-01 0.43477873E+03</pdfrwt>
<totfact> 0.77519507E+04</totfact>
</mgrwt>
</event>
<event>
 6    0  0.1539497E-004  0.4727598E+03  0.7546771E-02  0.1021144E+00
         21   -1    0    0  502  501  0.00000000000E+00  0.00000000000E+00  0.20957900250E+03  0.20957900250E+03  0.00000000000E+00 0.  1.
         21   -1    0    0  501  502 -0.00000000000E+00 -0.00000000000E+00 -0.26660814427E+03  0.26660814427E+03  0.00000000000E+00 0.  1.
      99925    2    1    2    0    0  0.10196986873E+03 -0.43444670443E+02  0.31563674213E+02  0.28702719154E+03  0.26287458918E+03 0.  0.
         25    1    3    3    0    0  0.61498561025E+02  0.16987265026E+02  0.10631802777E+02  0.14082323498E+03  0.12509000000E+03 0.  0.
         25    1    3    3    0    0  0.40471307703E+02 -0.60431935469E+02  0.20931871436E+02  0.14620395656E+03  0.12509000000E+03 0.  0.
         25    1    1    2    0    0 -0.10196986873E+03  0.43444670443E+02 -0.88592815982E+02  0.18915995523E+03  0.12509000000E+03 0.  0.
<mgrwt>
<rscale>  2 0.47275985E+03</rscale>
<asrwt>0</asrwt>
<pdfrwt beam="1">  1       21 0.30820442E-01 0.47275985E+03</pdfrwt>
<pdfrwt beam="2">  1       21 0.39207080E-01 0.47275985E+03</pdfrwt>
<totfact> 0.58309847E+04</totfact>
</mgrwt>
</event>
<event>
 6    0  0.1539497E-004  0.4421806E+03  0.7546771E-02  0.1030080E+00
         21   -1    0    0  502  501  0.00000000000E+00  0.00000000000E+00  0.11730253430E+04  0.11730253430E+04  0.00000000000E+00 0.  1.
         21   -1    0    0  501  502 -0.00000000000E+00 -0.00000000000E+00 -0.41670819856E+02  0.41670819856E+02  0.00000000000E+00 0.  1.
      99925    2    1    2    0    0  0.11739188191E+02 -0.17996050077E+02  0.99114319488E+03  0.10255708313E+04  0.26261955550E+03 0.  0.
         25    1    3    3    0    0  0.44601391094E+02 -0.29355152703E+01  0.47046619408E+03  0.48885974391E+03  0.12509000000E+03 0.  0.
         25    1    3    3    0    0 -0.32862202903E+02 -0.15060534807E+02  0.52067700080E+03  0.53671108741E+03  0.12509000000E+03 0.  0.
         25    1    1    2    0    0 -0.11739188191E+02  0.17996050077E+02  0.14021132827E+03  0.18912533155E+03  0.12509000000E+03 0.  0.
<mgrwt>
<rscale>  2 0.44218063E+03</rscale>
<asrwt>0</asrwt>
<pdfrwt beam="1">  1       21 0.17250370E+00 0.44218063E+03</pdfrwt>
<pdfrwt beam="2">  1       21 0.61280625E-02 0.44218063E+03</pdfrwt>
<totfact> 0.35066140E+04</totfact>
</mgrwt>
</event>
<event>
 6    0  0.1539497E-004  0.4500352E+03  0.7546771E-02  0.1027712E+00
         21   -1    0    0  502  501  0.00000000000E+00  0.00000000000E+00  0.15214115774E+03  0.15214115774E+03  0.00000000000E+00 0. -1.
         21   -1    0    0  501  502 -0.00000000000E+00 -0.00000000000E+00 -0.33280230469E+03  0.33280230469E+03  0.00000000000E+00 0. -1.
      99925    2    1    2    0    0  0.10227423841E+03  0.30281622579E+02 -0.13491552069E+03  0.31430593159E+03  0.26307608102E+03 0.  0.
         25    1    1    2    0    0 -0.10227423841E+03 -0.30281622579E+02 -0.45745626259E+02  0.17063753084E+03  0.12509000000E+03 0.  0.
         25    1    3    3    0    0  0.65396330941E+02  0.51776556306E+02 -0.87060786505E+02  0.17373710177E+03  0.12509000000E+03 0.  0.
         25    1    3    3    0    0  0.36877907467E+02 -0.21494933727E+02 -0.47854734185E+02  0.14056882983E+03  0.12509000000E+03 0.  0.
<mgrwt>
<rscale>  2 0.45003523E+03</rscale>
<asrwt>0</asrwt>
<pdfrwt beam="1">  1       21 0.22373700E-01 0.45003523E+03</pdfrwt>
<pdfrwt beam="2">  1       21 0.48941515E-01 0.45003523E+03</pdfrwt>
<totfact> 0.69022530E+04</totfact>
</mgrwt>
</event>
<event>
 6    0  0.1539497E-004  0.4145766E+03  0.7546771E-02  0.1038846E+00
         21   -1    0    0  502  501  0.00000000000E+00  0.00000000000E+00  0.97013842035E+02  0.97013842035E+02  0.00000000000E+00 0. -1.
         21   -1    0    0  501  502 -0.00000000000E+00 -0.00000000000E+00 -0.44291046831E+03  0.44291046831E+03  0.00000000000E+00 0. -1.
      99925    2    1    2    0    0 -0.80864426304E+01  0.50290058584E+02 -0.16647664453E+03  0.31535022792E+03  0.26293879997E+03 0.  0.
         25    1    1    2    0    0  0.80864426304E+01 -0.50290058584E+02 -0.17941998174E+03  0.22457408242E+03  0.12509000000E+03 0.  0.
         25    1    3    3    0    0  0.23658430428E+02  0.12837490203E+02 -0.49518476687E+02  0.13720098439E+03  0.12509000000E+03 0.  0.
         25    1    3    3    0    0 -0.31744873059E+02  0.37452568381E+02 -0.11695816784E+03  0.17814924352E+03  0.12509000000E+03 0.  0.
<mgrwt>
<rscale>  2 0.41457663E+03</rscale>
<asrwt>0</asrwt>
<pdfrwt beam="1">  1       21 0.14266742E-01 0.41457663E+03</pdfrwt>
<pdfrwt beam="2">  1       21 0.65133892E-01 0.41457663E+03</pdfrwt>
<totfact> 0.87285016E+04</totfact>
</mgrwt>
</event>
<event>
 6    0  0.1539497E-004  0.4168302E+03  0.7546771E-02  0.1038103E+00
         21   -1    0    0  502  501  0.00000000000E+00  0.00000000000E+00  0.34255784307E+03  0.34255784307E+03  0.00000000000E+00 0. -1.
         21   -1    0    0  501  502 -0.00000000000E+00 -0.00000000000E+00 -0.12680153741E+03  0.12680153741E+03  0.00000000000E+00 0. -1.
      99925    2    1    2    0    0  0.58381677053E+02 -0.26535137018E+02  0.10437068604E+03  0.29000833344E+03  0.26286699993E+03 0.  0.
         25    1    3    3    0    0  0.94918663028E+01  0.21379113023E+02  0.38662197292E+02  0.13300163758E+03  0.12509000000E+03 0.  0.
         25    1    1    2    0    0 -0.58381677053E+02  0.26535137018E+02  0.11138561963E+03  0.17935104703E+03  0.12509000000E+03 0.  0.
         25    1    3    3    0    0  0.48889810750E+02 -0.47914250041E+02  0.65708488746E+02  0.15700669586E+03  0.12509000000E+03 0.  0.
<mgrwt>
<rscale>  2 0.41683023E+03</rscale>
<asrwt>0</asrwt>
<pdfrwt beam="1">  1       21 0.50376153E-01 0.41683023E+03</pdfrwt>
<pdfrwt beam="2">  1       21 0.18647285E-01 0.41683023E+03</pdfrwt>
<totfact> 0.92484913E+04</totfact>
</mgrwt>
</event>
<event>
 6    0  0.1539497E-004  0.4177495E+03  0.7546771E-02  0.1037801E+00
         21   -1    0    0  502  501  0.00000000000E+00  0.00000000000E+00  0.18625916749E+03  0.18625916749E+03  0.00000000000E+00 0.  1.
         21   -1    0    0  501  502 -0.00000000000E+00 -0.00000000000E+00 -0.23423629597E+03  0.23423629597E+03  0.00000000000E+00 0.  1.
      99925    2    1    2    0    0 -0.87293110199E+01  0.65751697619E+02 -0.62020949906E+02  0.27821326629E+03  0.26297630445E+03 0.  0.
         25    1    1    2    0    0  0.87293110199E+01 -0.65751697619E+02  0.14043821432E+02  0.14228219717E+03  0.12509000000E+03 0.  0.
         25    1    3    3    0    0 -0.13828266054E+02  0.67342271720E+02 -0.11494434062E+02  0.14319857757E+03  0.12509000000E+03 0.  0.
         25    1    3    3    0    0  0.50989550344E+01 -0.15905741010E+01 -0.50526515845E+02  0.13501468873E+03  0.12509000000E+03 0.  0.
<mgrwt>
<rscale>  2 0.41774948E+03</rscale>
<asrwt>0</asrwt>
<pdfrwt beam="1">  1       21 0.27391054E-01 0.41774948E+03</pdfrwt>
<pdfrwt beam="2">  1       21 0.34446514E-01 0.41774948E+03</pdfrwt>
<totfact> 0.96904518E+04</totfact>
</mgrwt>
</event>
<event>
 6    0  0.1539497E-004  0.4240057E+03  0.7546771E-02  0.1035770E+00
         21   -1    0    0  502  501  0.00000000000E+00  0.00000000000E+00  0.50680922764E+02  0.50680922764E+02  0.00000000000E+00 0. -1.
         21   -1    0    0  501  502 -0.00000000000E+00 -0.00000000000E+00 -0.88682710012E+03  0.88682710012E+03  0.00000000000E+00 0. -1.
      99925    2    1    2    0    0 -0.48373196150E+02  0.33889959030E+02 -0.42087773505E+03  0.49980506116E+03  0.26301812840E+03 0.  0.
         25    1    3    3    0    0  0.15436930602E+02  0.19876110584E+02 -0.18011978443E+03  0.22073514319E+03  0.12509000000E+03 0.  0.
         25    1    3    3    0    0 -0.63810126752E+02  0.14013848447E+02 -0.24075795062E+03  0.27906991797E+03  0.12509000000E+03 0.  0.
         25    1    1    2    0    0  0.48373196150E+02 -0.33889959030E+02 -0.41526844230E+03  0.43770296173E+03  0.12509000000E+03 0.  0.
<mgrwt>
<rscale>  2 0.42400573E+03</rscale>
<asrwt>0</asrwt>
<pdfrwt beam="1">  1       21 0.74530772E-02 0.42400573E+03</pdfrwt>
<pdfrwt beam="2">  1       21 0.13041574E+00 0.42400573E+03</pdfrwt>
<totfact> 0.53485875E+04</totfact>
</mgrwt>
</event>
<event>
 6    0  0.1539497E-004  0.4193878E+03  0.7546771E-02  0.1037266E+00
         21   -1    0    0  502  501  0.00000000000E+00  0.00000000000E+00  0.33307033261E+03  0.33307033261E+03  0.00000000000E+00 0. -1.
         21   -1    0    0  501  502 -0.00000000000E+00 -0.00000000000E+00 -0.13201878851E+03  0.13201878851E+03  0.00000000000E+00 0. -1.
      99925    2    1    2    0    0  0.53325257381E+02  0.24711673043E+01  0.73213233777E+02  0.27843481115E+03  0.26327946505E+03 0.  0.
         25    1    1    2    0    0 -0.53325257381E+02 -0.24711673043E+01  0.12783831033E+03  0.18665430997E+03  0.12509000000E+03 0.  0.
         25    1    3    3    0    0  0.34065874568E+02 -0.33821078404E+02  0.57624045474E+02  0.14585056692E+03  0.12509000000E+03 0.  0.
         25    1    3    3    0    0  0.19259382812E+02  0.36292245709E+02  0.15589188303E+02  0.13258424423E+03  0.12509000000E+03 0.  0.
<mgrwt>
<rscale>  2 0.41938785E+03</rscale>
<asrwt>0</asrwt>
<pdfrwt beam="1">  1       21 0.48980931E-01 0.41938785E+03</pdfrwt>
<pdfrwt beam="2">  1       21 0.19414528E-01 0.41938785E+03</pdfrwt>
<totfact> 0.90907604E+04</totfact>
</mgrwt>
</event>
<event>
 6    0  0.1539497E-004  0.4500064E+03  0.7546771E-02  0.1027720E+00
         21   -1    0    0  502  501  0.00000000000E+00  0.00000000000E+00  0.12065488089E+03  0.12065488089E+03  0.00000000000E+00 0.  1.
         21   -1    0    0  501  502 -0.00000000000E+00 -0.00000000000E+00 -0.41959711669E+03  0.41959711669E+03  0.00000000000E+00 0.  1.
      99925    2    1    2    0    0 -0.45579459486E+02 -0.50013025429E+01 -0.30692007968E+03  0.40678419529E+03  0.26300369973E+03 0.  0.
         25    1    3    3    0    0 -0.12851939336E+02  0.35294241290E+02 -0.13374214685E+03  0.18693668917E+03  0.12509000000E+03 0.  0.
         25    1    1    2    0    0  0.45579459486E+02  0.50013025429E+01  0.79778438776E+01  0.13346780229E+03  0.12509000000E+03 0.  0.
         25    1    3    3    0    0 -0.32727520150E+02 -0.40295543833E+02 -0.17317793283E+03  0.21984750612E+03  0.12509000000E+03 0.  0.
<mgrwt>
<rscale>  2 0.45000640E+03</rscale>
<asrwt>0</asrwt>
<pdfrwt beam="1">  1       21 0.17743365E-01 0.45000640E+03</pdfrwt>
<pdfrwt beam="2">  1       21 0.61705459E-01 0.45000640E+03</pdfrwt>
<totfact> 0.65048029E+04</totfact>
</mgrwt>
</event>
<event>
 6    0  0.1539497E-004  0.4657964E+03  0.7546771E-02  0.1023113E+00
         21   -1    0    0  502  501  0.00000000000E+00  0.00000000000E+00  0.42830269669E+02  0.42830269669E+02  0.00000000000E+00 0.  1.
         21   -1    0    0  501  502 -0.00000000000E+00 -0.00000000000E+00 -0.12664305564E+04  0.12664305564E+04  0.00000000000E+00 0.  1.
      99925    2    1    2    0    0 -0.10865137792E+03 -0.57576793806E+02 -0.77106867192E+03  0.82392323262E+03  0.26302544997E+03 0.  0.
         25    1    1    2    0    0  0.10865137792E+03  0.57576793806E+02 -0.45253161482E+03  0.48533759346E+03  0.12509000000E+03 0.  0.
         25    1    3    3    0    0 -0.31714338412E+02 -0.32462325629E+02 -0.46260526115E+03  0.48136341530E+03  0.12509000000E+03 0.  0.
         25    1    3    3    0    0 -0.76937039508E+02 -0.25114468177E+02 -0.30846341077E+03  0.34255981732E+03  0.12509000000E+03 0.  0.
<mgrwt>
<rscale>  2 0.46579636E+03</rscale>
<asrwt>0</asrwt>
<pdfrwt beam="1">  1       21 0.62985698E-02 0.46579636E+03</pdfrwt>
<pdfrwt beam="2">  1       21 0.18623977E+00 0.46579636E+03</pdfrwt>
<totfact> 0.26546428E+04</totfact>
</mgrwt>
</event>
<event>
 6    0  0.1539497E-004  0.3988511E+03  0.7546771E-02  0.1044178E+00
         21   -1    0    0  502  501  0.00000000000E+00  0.00000000000E+00  0.20856727774E+02  0.20856727774E+02  0.00000000000E+00 0.  1.
         21   -1    0    0  501  502 -0.00000000000E+00 -0.00000000000E+00 -0.19068448589E+04  0.19068448589E+04  0.00000000000E+00 0.  1.
      99925    2    1    2    0    0 -0.28448387415E+01 -0.26352349676E+02 -0.10946311215E+04  0.11260807510E+04  0.26294110770E+03 0.  0.
         25    1    1    2    0    0  0.28448387415E+01  0.26352349676E+02 -0.79135700967E+03  0.80162083574E+03  0.12509000000E+03 0.  0.
         25    1    3    3    0    0 -0.19981583542E+02 -0.94705312450E+01 -0.69899183420E+03  0.71044074139E+03  0.12509000000E+03 0.  0.
         25    1    3    3    0    0  0.17136744801E+02 -0.16881818431E+02 -0.39563928728E+03  0.41564000957E+03  0.12509000000E+03 0.  0.
<mgrwt>
<rscale>  2 0.39885107E+03</rscale>
<asrwt>0</asrwt>
<pdfrwt beam="1">  1       21 0.30671655E-02 0.39885107E+03</pdfrwt>
<pdfrwt beam="2">  1       21 0.28041840E+00 0.39885107E+03</pdfrwt>
<totfact> 0.23696497E+04</totfact>
</mgrwt>
</event>
<event>
 6    0  0.1539497E-004  0.4536706E+03  0.7546771E-02  0.1026633E+00
         21   -1    0    0  502  501  0.00000000000E+00  0.00000000000E+00  0.11811073010E+03  0.11811073010E+03  0.00000000000E+00 0.  1.
         21   -1    0    0  501  502 -0.00000000000E+00 -0.00000000000E+00 -0.43564425686E+03  0.43564425686E+03  0.00000000000E+00 0.  1.
      99925    2    1    2    0    0 -0.75263252600E+02 -0.13460312382E+01 -0.30112097369E+03  0.40684260154E+03  0.26302222842E+03 0.  0.
         25    1    3    3    0    0 -0.79806185766E+02 -0.24840642756E+01 -0.16227524251E+03  0.21989988698E+03  0.12509000000E+03 0.  0.
         25    1    1    2    0    0  0.75263252600E+02  0.13460312382E+01 -0.16412553066E+02  0.14691238542E+03  0.12509000000E+03 0.  0.
         25    1    3    3    0    0  0.45429331660E+01  0.11380330374E+01 -0.13884573117E+03  0.18694271456E+03  0.12509000000E+03 0.  0.
<mgrwt>
<rscale>  2 0.45367063E+03</rscale>
<asrwt>0</asrwt>
<pdfrwt beam="1">  1       21 0.17369225E-01 0.45367063E+03</pdfrwt>
<pdfrwt beam="2">  1       21 0.64065331E-01 0.45367063E+03</pdfrwt>
<totfact> 0.62271374E+04</totfact>
</mgrwt>
</event>
<event>
 6    0  0.1539497E-004  0.4310618E+03  0.7546771E-02  0.1033525E+00
         21   -1    0    0  502  501  0.00000000000E+00  0.00000000000E+00  0.28749976465E+03  0.28749976465E+03  0.00000000000E+00 0.  1.
         21   -1    0    0  501  502 -0.00000000000E+00 -0.00000000000E+00 -0.16157772929E+03  0.16157772929E+03  0.00000000000E+00 0.  1.
      99925    2    1    2    0    0  0.39801826927E+01 -0.77506989413E+02  0.36059998146E+02  0.27660758614E+03  0.26303660959E+03 0.  0.
         25    1    3    3    0    0 -0.38234830372E+02 -0.43429957180E+02  0.21346231034E+02  0.13946767767E+03  0.12509000000E+03 0.  0.
         25    1    1    2    0    0 -0.39801826927E+01  0.77506989413E+02  0.89862037218E+02  0.17246990780E+03  0.12509000000E+03 0.  0.
         25    1    3    3    0    0  0.42215013065E+02 -0.34077032233E+02  0.14713767112E+02  0.13713990847E+03  0.12509000000E+03 0.  0.
<mgrwt>
<rscale>  2 0.43106175E+03</rscale>
<asrwt>0</asrwt>
<pdfrwt beam="1">  1       21 0.42279377E-01 0.43106175E+03</pdfrwt>
<pdfrwt beam="2">  1       21 0.23761431E-01 0.43106175E+03</pdfrwt>
<totfact> 0.83850846E+04</totfact>
</mgrwt>
</event>
<event>
 6    0  0.1539497E-004  0.4062900E+03  0.7546771E-02  0.1041623E+00
         21   -1    0    0  502  501  0.00000000000E+00  0.00000000000E+00  0.86590611680E+02  0.86590611680E+02  0.00000000000E+00 0. -1.
         21   -1    0    0  501  502 -0.00000000000E+00 -0.00000000000E+00 -0.47658630662E+03  0.47658630662E+03  0.00000000000E+00 0. -1.
      99925    2    1    2    0    0  0.29534117167E+01  0.36048771994E+02 -0.19803287835E+03  0.33121686213E+03  0.26301968035E+03 0.  0.
         25    1    3    3    0    0  0.16821868713E+02 -0.17428869753E+02 -0.78979971561E+02  0.14990692037E+03  0.12509000000E+03 0.  0.
         25    1    1    2    0    0 -0.29534117167E+01 -0.36048771994E+02 -0.19196281659E+03  0.23196005616E+03  0.12509000000E+03 0.  0.
         25    1    3    3    0    0 -0.13868456996E+02  0.53477641747E+02 -0.11905290679E+03  0.18130994176E+03  0.12509000000E+03 0.  0.
<mgrwt>
<rscale>  2 0.40629004E+03</rscale>
<asrwt>0</asrwt>
<pdfrwt beam="1">  1       21 0.12733914E-01 0.40629004E+03</pdfrwt>
<pdfrwt beam="2">  1       21 0.70086221E-01 0.40629004E+03</pdfrwt>
<totfact> 0.91467123E+04</totfact>
</mgrwt>
</event>
<event>
 6    0  0.1539497E-004  0.3994384E+03  0.7546771E-02  0.1043974E+00
         21   -1    0    0  502  501  0.00000000000E+00  0.00000000000E+00  0.14276436908E+03  0.14276436908E+03  0.00000000000E+00 0.  1.
         21   -1    0    0  501  502 -0.00000000000E+00 -0.00000000000E+00 -0.27939574430E+03  0.27939574430E+03  0.00000000000E+00 0.  1.
      99925    2    1    2    0    0 -0.18545572527E+02 -0.15842353415E+02 -0.52110577814E+02  0.26923466843E+03  0.26301497285E+03 0.  0.
         25    1    3    3    0    0  0.33204937272E+01  0.21010532748E+02 -0.51683214873E+02  0.13700777702E+03  0.12509000000E+03 0.  0.
         25    1    1    2    0    0  0.18545572527E+02  0.15842353415E+02 -0.84520797404E+02  0.15292544496E+03  0.12509000000E+03 0.  0.
         25    1    3    3    0    0 -0.21866066254E+02 -0.36852886163E+02 -0.42736294156E+00  0.13222689141E+03  0.12509000000E+03 0.  0.
<mgrwt>
<rscale>  2 0.39943839E+03</rscale>
<asrwt>0</asrwt>
<pdfrwt beam="1">  1       21 0.20994760E-01 0.39943839E+03</pdfrwt>
<pdfrwt beam="2">  1       21 0.41087609E-01 0.39943839E+03</pdfrwt>
<totfact> 0.11355596E+05</totfact>
</mgrwt>
</event>
<event>
 6    0  0.1539497E-004  0.4461996E+03  0.7546771E-02  0.1028861E+00
         21   -1    0    0  502  501  0.00000000000E+00  0.00000000000E+00  0.75358716792E+03  0.75358716792E+03  0.00000000000E+00 0. -1.
         21   -1    0    0  501  502 -0.00000000000E+00 -0.00000000000E+00 -0.66048796425E+02  0.66048796425E+02  0.00000000000E+00 0. -1.
      99925    2    1    2    0    0  0.48156734535E+02  0.58762705280E+02  0.30379802025E+03  0.40893377067E+03  0.26298567466E+03 0.  0.
         25    1    3    3    0    0  0.19972531211E+02 -0.16176870882E+00  0.10172392385E+03  0.16246289717E+03  0.12509000000E+03 0.  0.
         25    1    3    3    0    0  0.28184203323E+02  0.58924473989E+02  0.20207409639E+03  0.24647087350E+03  0.12509000000E+03 0.  0.
         25    1    1    2    0    0 -0.48156734535E+02 -0.58762705280E+02  0.38374035125E+03  0.41070219367E+03  0.12509000000E+03 0.  0.
<mgrwt>
<rscale>  2 0.44619962E+03</rscale>
<asrwt>0</asrwt>
<pdfrwt beam="1">  1       21 0.11082164E+00 0.44619962E+03</pdfrwt>
<pdfrwt beam="2">  1       21 0.97130587E-02 0.44619962E+03</pdfrwt>
<totfact> 0.50207966E+04</totfact>
</mgrwt>
</event>
<event>
 6    0  0.1539497E-004  0.4662168E+03  0.7546771E-02  0.1022993E+00
         21   -1    0    0  502  501  0.00000000000E+00  0.00000000000E+00  0.28436284731E+03  0.28436284731E+03  0.00000000000E+00 0. -1.
         21   -1    0    0  501  502 -0.00000000000E+00 -0.00000000000E+00 -0.19109223258E+03  0.19109223258E+03  0.00000000000E+00 0. -1.
      99925    2    1    2    0    0 -0.39962316449E+02  0.70235874037E+02  0.15312638168E+03  0.31495496875E+03  0.26309480960E+03 0.  0.
         25    1    3    3    0    0 -0.12426738830E+00  0.67893518535E+02  0.96536567907E+02  0.17197779608E+03  0.12509000000E+03 0.  0.
         25    1    3    3    0    0 -0.39838049060E+02  0.23423555018E+01  0.56589813777E+02  0.14297717267E+03  0.12509000000E+03 0.  0.
         25    1    1    2    0    0  0.39962316449E+02 -0.70235874037E+02 -0.59855766951E+02  0.16050011114E+03  0.12509000000E+03 0.  0.
<mgrwt>
<rscale>  2 0.46621682E+03</rscale>
<asrwt>0</asrwt>
<pdfrwt beam="1">  1       21 0.41818066E-01 0.46621682E+03</pdfrwt>
<pdfrwt beam="2">  1       21 0.28101799E-01 0.46621682E+03</pdfrwt>
<totfact> 0.61382664E+04</totfact>
</mgrwt>
</event>
<event>
 6    0  0.1539497E-004  0.4447798E+03  0.7546771E-02  0.1029290E+00
         21   -1    0    0  502  501  0.00000000000E+00  0.00000000000E+00  0.11151187829E+03  0.11151187829E+03  0.00000000000E+00 0.  1.
         21   -1    0    0  501  502 -0.00000000000E+00 -0.00000000000E+00 -0.44351564988E+03  0.44351564988E+03  0.00000000000E+00 0.  1.
      99925    2    1    2    0    0 -0.76129323860E+01  0.61406190502E+02 -0.10766706255E+03  0.29082468169E+03  0.26297931886E+03 0.  0.
         25    1    3    3    0    0 -0.41564970638E+02  0.15992319308E+02 -0.55357918558E+02  0.14385898758E+03  0.12509000000E+03 0.  0.
         25    1    3    3    0    0  0.33952038252E+02  0.45413871193E+02 -0.52309143990E+02  0.14696569410E+03  0.12509000000E+03 0.  0.
         25    1    1    2    0    0  0.76129323860E+01 -0.61406190502E+02 -0.22433670904E+03  0.26420284649E+03  0.12509000000E+03 0.  0.
<mgrwt>
<rscale>  2 0.44477978E+03</rscale>
<asrwt>0</asrwt>
<pdfrwt beam="1">  1       21 0.16398806E-01 0.44477978E+03</pdfrwt>
<pdfrwt beam="2">  1       21 0.65222890E-01 0.44477978E+03</pdfrwt>
<totfact> 0.66772499E+04</totfact>
</mgrwt>
</event>
<event>
 6    0  0.1539497E-004  0.4062853E+03  0.7546771E-02  0.1041625E+00
         21   -1    0    0  502  501  0.00000000000E+00  0.00000000000E+00  0.88755318295E+02  0.88755318295E+02  0.00000000000E+00 0.  1.
         21   -1    0    0  501  502 -0.00000000000E+00 -0.00000000000E+00 -0.46495159557E+03  0.46495159557E+03  0.00000000000E+00 0.  1.
      99925    2    1    2    0    0  0.44357225408E+02 -0.27678411577E+02 -0.27833117693E+03  0.38649823024E+03  0.26301897273E+03 0.  0.
         25    1    1    2    0    0 -0.44357225408E+02  0.27678411577E+02 -0.97865100348E+02  0.16720868362E+03  0.12509000000E+03 0.  0.
         25    1    3    3    0    0  0.23902210523E+02  0.14570198634E+02 -0.17829380533E+03  0.21959006233E+03  0.12509000000E+03 0.  0.
         25    1    3    3    0    0  0.20455014885E+02 -0.42248610211E+02 -0.10003737160E+03  0.16690816791E+03  0.12509000000E+03 0.  0.
<mgrwt>
<rscale>  2 0.40628525E+03</rscale>
<asrwt>0</asrwt>
<pdfrwt beam="1">  1       21 0.13052252E-01 0.40628525E+03</pdfrwt>
<pdfrwt beam="2">  1       21 0.68375236E-01 0.40628525E+03</pdfrwt>
<totfact> 0.92410517E+04</totfact>
</mgrwt>
</event>
<event>
 6    0  0.1539497E-004  0.4196245E+03  0.7546771E-02  0.1037189E+00
         21   -1    0    0  502  501  0.00000000000E+00  0.00000000000E+00  0.58400114404E+03  0.58400114404E+03  0.00000000000E+00 0. -1.
         21   -1    0    0  501  502 -0.00000000000E+00 -0.00000000000E+00 -0.75378594781E+02  0.75378594781E+02  0.00000000000E+00 0. -1.
      99925    2    1    2    0    0  0.42559530024E+02  0.48748777236E+02  0.27086741081E+03  0.38304159300E+03  0.26299040068E+03 0.  0.
         25    1    3    3    0    0  0.16864307750E+02  0.65201580928E+02  0.14376878973E+03  0.20212032068E+03  0.12509000000E+03 0.  0.
         25    1    1    2    0    0 -0.42559530024E+02 -0.48748777236E+02  0.23775513845E+03  0.27633814582E+03  0.12509000000E+03 0.  0.
         25    1    3    3    0    0  0.25695222274E+02 -0.16452803692E+02  0.12709862108E+03  0.18092127232E+03  0.12509000000E+03 0.  0.
<mgrwt>
<rscale>  2 0.41962453E+03</rscale>
<asrwt>0</asrwt>
<pdfrwt beam="1">  1       21 0.85882519E-01 0.41962453E+03</pdfrwt>
<pdfrwt beam="2">  1       21 0.11085088E-01 0.41962453E+03</pdfrwt>
<totfact> 0.73643466E+04</totfact>
</mgrwt>
</event>
<event>
 6    0  0.1539497E-004  0.4957455E+03  0.7546771E-02  0.1014895E+00
         21   -1    0    0  502  501  0.00000000000E+00  0.00000000000E+00  0.47364053459E+03  0.47364053459E+03  0.00000000000E+00 0. -1.
         21   -1    0    0  501  502 -0.00000000000E+00 -0.00000000000E+00 -0.12972052573E+03  0.12972052573E+03  0.00000000000E+00 0. -1.
      99925    2    1    2    0    0 -0.85716670739E+01  0.13709771580E+03  0.27680285850E+03  0.40582251440E+03  0.26306431451E+03 0.  0.
         25    1    1    2    0    0  0.85716670739E+01 -0.13709771580E+03  0.67117150360E+02  0.19753854592E+03  0.12509000000E+03 0.  0.
         25    1    3    3    0    0  0.28264372267E+02  0.92995286071E+02  0.16195307256E+03  0.22654647157E+03  0.12509000000E+03 0.  0.
         25    1    3    3    0    0 -0.36836039341E+02  0.44102429727E+02  0.11484978594E+03  0.17927604283E+03  0.12509000000E+03 0.  0.
<mgrwt>
<rscale>  2 0.49574550E+03</rscale>
<asrwt>0</asrwt>
<pdfrwt beam="1">  1       21 0.69653019E-01 0.49574550E+03</pdfrwt>
<pdfrwt beam="2">  1       21 0.19076548E-01 0.49574550E+03</pdfrwt>
<totfact> 0.42897463E+04</totfact>
</mgrwt>
</event>
<event>
 6    0  0.1539497E-004  0.4125640E+03  0.7546771E-02  0.1039514E+00
         21   -1    0    0  502  501  0.00000000000E+00  0.00000000000E+00  0.88111231424E+02  0.88111231424E+02  0.00000000000E+00 0. -1.
         21   -1    0    0  501  502 -0.00000000000E+00 -0.00000000000E+00 -0.48293795302E+03  0.48293795302E+03  0.00000000000E+00 0. -1.
      99925    2    1    2    0    0 -0.71705421073E+01 -0.43127895747E+02 -0.19119543906E+03  0.32809931432E+03  0.26302477464E+03 0.  0.
         25    1    3    3    0    0  0.36762724258E+02 -0.20195365629E+02 -0.89175336733E+02  0.15924540643E+03  0.12509000000E+03 0.  0.
         25    1    3    3    0    0 -0.43933266365E+02 -0.22932530117E+02 -0.10202010233E+03  0.16885390789E+03  0.12509000000E+03 0.  0.
         25    1    1    2    0    0  0.71705421073E+01  0.43127895747E+02 -0.20363128253E+03  0.24294987012E+03  0.12509000000E+03 0.  0.
<mgrwt>
<rscale>  2 0.41256397E+03</rscale>
<asrwt>0</asrwt>
<pdfrwt beam="1">  1       21 0.12957534E-01 0.41256397E+03</pdfrwt>
<pdfrwt beam="2">  1       21 0.71020287E-01 0.41256397E+03</pdfrwt>
<totfact> 0.85886196E+04</totfact>
</mgrwt>
</event>
<event>
 6    0  0.1539497E-004  0.4405047E+03  0.7546771E-02  0.1030592E+00
         21   -1    0    0  502  501  0.00000000000E+00  0.00000000000E+00  0.10994138808E+03  0.10994138808E+03  0.00000000000E+00 0. -1.
         21   -1    0    0  501  502 -0.00000000000E+00 -0.00000000000E+00 -0.44124513855E+03  0.44124513855E+03  0.00000000000E+00 0. -1.
      99925    2    1    2    0    0 -0.59645724431E+02  0.42824647674E+02 -0.29468406728E+03  0.40158682011E+03  0.26275789558E+03 0.  0.
         25    1    3    3    0    0 -0.26348029983E+02  0.61428286276E+02 -0.14523626536E+03  0.20299934462E+03  0.12509000000E+03 0.  0.
         25    1    3    3    0    0 -0.33297694448E+02 -0.18603638602E+02 -0.14944780192E+03  0.19858747550E+03  0.12509000000E+03 0.  0.
         25    1    1    2    0    0  0.59645724431E+02 -0.42824647674E+02 -0.36619683187E+02  0.14959970651E+03  0.12509000000E+03 0.  0.
<mgrwt>
<rscale>  2 0.44050472E+03</rscale>
<asrwt>0</asrwt>
<pdfrwt beam="1">  1       21 0.16167852E-01 0.44050472E+03</pdfrwt>
<pdfrwt beam="2">  1       21 0.64888989E-01 0.44050472E+03</pdfrwt>
<totfact> 0.69412411E+04</totfact>
</mgrwt>
</event>
<event>
 6    0  0.1539497E-004  0.4373981E+03  0.7546771E-02  0.1031548E+00
         21   -1    0    0  502  501  0.00000000000E+00  0.00000000000E+00  0.42192665617E+03  0.42192665617E+03  0.00000000000E+00 0.  1.
         21   -1    0    0  501  502 -0.00000000000E+00 -0.00000000000E+00 -0.11335922510E+03  0.11335922510E+03  0.00000000000E+00 0.  1.
      99925    2    1    2    0    0  0.69545502563E+02  0.53216664356E+02  0.24456655535E+03  0.36971954869E+03  0.26308012923E+03 0.  0.
         25    1    3    3    0    0  0.44153145728E+02  0.46341967149E+02  0.17418903502E+03  0.22379992453E+03  0.12509000000E+03 0.  0.
         25    1    1    2    0    0 -0.69545502563E+02 -0.53216664356E+02  0.64000875725E+02  0.16556633258E+03  0.12509000000E+03 0.  0.
         25    1    3    3    0    0  0.25392356834E+02  0.68746972069E+01  0.70377520325E+02  0.14591962416E+03  0.12509000000E+03 0.  0.
<mgrwt>
<rscale>  2 0.43739812E+03</rscale>
<asrwt>0</asrwt>
<pdfrwt beam="1">  1       21 0.62048037E-01 0.43739812E+03</pdfrwt>
<pdfrwt beam="2">  1       21 0.16670474E-01 0.43739812E+03</pdfrwt>
<totfact> 0.72423968E+04</totfact>
</mgrwt>
</event>
<event>
 6    0  0.1539497E-004  0.4084849E+03  0.7546771E-02  0.1040881E+00
         21   -1    0    0  502  501  0.00000000000E+00  0.00000000000E+00  0.30466059598E+03  0.30466059598E+03  0.00000000000E+00 0. -1.
         21   -1    0    0  501  502 -0.00000000000E+00 -0.00000000000E+00 -0.13692276374E+03  0.13692276374E+03  0.00000000000E+00 0. -1.
      99925    2    1    2    0    0  0.40509258801E+02  0.31383450758E+02  0.14477467685E+03  0.30446758516E+03  0.26289709455E+03 0.  0.
         25    1    3    3    0    0  0.45369791898E+02  0.20428025365E+02  0.38848488165E+02  0.14011579272E+03  0.12509000000E+03 0.  0.
         25    1    3    3    0    0 -0.48605330973E+01  0.10955425393E+02  0.10592618868E+03  0.16435179244E+03  0.12509000000E+03 0.  0.
         25    1    1    2    0    0 -0.40509258801E+02 -0.31383450758E+02  0.22963155394E+02  0.13711577457E+03  0.12509000000E+03 0.  0.
<mgrwt>
<rscale>  2 0.40848486E+03</rscale>
<asrwt>0</asrwt>
<pdfrwt beam="1">  1       21 0.44803029E-01 0.40848486E+03</pdfrwt>
<pdfrwt beam="2">  1       21 0.20135701E-01 0.40848486E+03</pdfrwt>
<totfact> 0.10254670E+05</totfact>
</mgrwt>
</event>
<event>
 6    0  0.1539497E-004  0.5430638E+03  0.7546771E-02  0.1003112E+00
         21   -1    0    0  502  501  0.00000000000E+00  0.00000000000E+00  0.22133832506E+03  0.22133832506E+03  0.00000000000E+00 0.  1.
         21   -1    0    0  501  502 -0.00000000000E+00 -0.00000000000E+00 -0.33310799953E+03  0.33310799953E+03  0.00000000000E+00 0.  1.
      99925    2    1    2    0    0  0.64755520703E+02  0.66316209799E+01 -0.24166353036E+03  0.36272470934E+03  0.26254656159E+03 0.  0.
         25    1    3    3    0    0  0.29221168563E+02 -0.17488172948E+01 -0.67246405603E+02  0.14500524894E+03  0.12509000000E+03 0.  0.
         25    1    3    3    0    0  0.35534352141E+02  0.83804382747E+01 -0.17441712476E+03  0.21771946040E+03  0.12509000000E+03 0.  0.
         25    1    1    2    0    0 -0.64755520703E+02 -0.66316209799E+01  0.12989385588E+03  0.19172161525E+03  0.12509000000E+03 0.  0.
<mgrwt>
<rscale>  2 0.54306378E+03</rscale>
<asrwt>0</asrwt>
<pdfrwt beam="1">  1       21 0.32549754E-01 0.54306378E+03</pdfrwt>
<pdfrwt beam="2">  1       21 0.48986470E-01 0.54306378E+03</pdfrwt>
<totfact> 0.32346621E+04</totfact>
</mgrwt>
</event>
<event>
 6    0  0.1539497E-004  0.4810631E+03  0.7546771E-02  0.1018843E+00
         21   -1    0    0  502  501  0.00000000000E+00  0.00000000000E+00  0.10928790316E+03  0.10928790316E+03  0.00000000000E+00 0. -1.
         21   -1    0    0  501  502 -0.00000000000E+00 -0.00000000000E+00 -0.52938537398E+03  0.52938537398E+03  0.00000000000E+00 0. -1.
      99925    2    1    2    0    0  0.96240842106E+02  0.93805480629E+02 -0.22945442840E+03  0.37399602914E+03  0.26298655329E+03 0.  0.
         25    1    3    3    0    0  0.64988577844E+01  0.32560917972E+02 -0.93352999415E+02  0.15957674997E+03  0.12509000000E+03 0.  0.
         25    1    1    2    0    0 -0.96240842106E+02 -0.93805480629E+02 -0.19064304243E+03  0.26467724800E+03  0.12509000000E+03 0.  0.
         25    1    3    3    0    0  0.89741984322E+02  0.61244562657E+02 -0.13610142899E+03  0.21441927916E+03  0.12509000000E+03 0.  0.
<mgrwt>
<rscale>  2 0.48106306E+03</rscale>
<asrwt>0</asrwt>
<pdfrwt beam="1">  1       21 0.16071751E-01 0.48106306E+03</pdfrwt>
<pdfrwt beam="2">  1       21 0.77850790E-01 0.48106306E+03</pdfrwt>
<totfact> 0.46113987E+04</totfact>
</mgrwt>
</event>
<event>
 6    0  0.1539497E-004  0.4319553E+03  0.7546771E-02  0.1033244E+00
         21   -1    0    0  502  501  0.00000000000E+00  0.00000000000E+00  0.32981115225E+03  0.32981115225E+03  0.00000000000E+00 0. -1.
         21   -1    0    0  501  502 -0.00000000000E+00 -0.00000000000E+00 -0.14143347047E+03  0.14143347047E+03  0.00000000000E+00 0. -1.
      99925    2    1    2    0    0  0.39748329437E+02  0.71677915621E+02  0.16141997258E+03  0.31928449813E+03  0.26299910631E+03 0.  0.
         25    1    1    2    0    0 -0.39748329437E+02 -0.71677915621E+02  0.26957709200E+02  0.15196012459E+03  0.12509000000E+03 0.  0.
         25    1    3    3    0    0 -0.20976925367E+01  0.25834624422E+02  0.11568217919E+03  0.17234181969E+03  0.12509000000E+03 0.  0.
         25    1    3    3    0    0  0.41846021974E+02  0.45843291198E+02  0.45737793393E+02  0.14694267844E+03  0.12509000000E+03 0.  0.
<mgrwt>
<rscale>  2 0.43195526E+03</rscale>
<asrwt>0</asrwt>
<pdfrwt beam="1">  1       21 0.48501640E-01 0.43195526E+03</pdfrwt>
<pdfrwt beam="2">  1       21 0.20799040E-01 0.43195526E+03</pdfrwt>
<totfact> 0.81213109E+04</totfact>
</mgrwt>
</event>
<event>
 6    0  0.1539497E-004  0.4315447E+03  0.7546771E-02  0.1033373E+00
         21   -1    0    0  502  501  0.00000000000E+00  0.00000000000E+00  0.57074495544E+02  0.57074495544E+02  0.00000000000E+00 0.  1.
         21   -1    0    0  501  502 -0.00000000000E+00 -0.00000000000E+00 -0.81573567498E+03  0.81573567498E+03  0.00000000000E+00 0.  1.
      99925    2    1    2    0    0  0.42785819066E+02 -0.15676770294E+02 -0.33315973971E+03  0.42696785451E+03  0.26311546739E+03 0.  0.
         25    1    1    2    0    0 -0.42785819066E+02  0.15676770294E+02 -0.42550143973E+03  0.44584231602E+03  0.12509000000E+03 0.  0.
         25    1    3    3    0    0  0.36102565944E+02  0.30140015842E+02 -0.16849928036E+03  0.21506122711E+03  0.12509000000E+03 0.  0.
         25    1    3    3    0    0  0.66832531219E+01 -0.45816786135E+02 -0.16466045935E+03  0.21190662740E+03  0.12509000000E+03 0.  0.
<mgrwt>
<rscale>  2 0.43154468E+03</rscale>
<asrwt>0</asrwt>
<pdfrwt beam="1">  1       21 0.83933084E-02 0.43154468E+03</pdfrwt>
<pdfrwt beam="2">  1       21 0.11996113E+00 0.43154468E+03</pdfrwt>
<totfact> 0.53620751E+04</totfact>
</mgrwt>
</event>
<event>
 6    0  0.1539497E-004  0.4038261E+03  0.7546771E-02  0.1042463E+00
         21   -1    0    0  502  501  0.00000000000E+00  0.00000000000E+00  0.38500384470E+03  0.38500384470E+03  0.00000000000E+00 0. -1.
         21   -1    0    0  501  502 -0.00000000000E+00 -0.00000000000E+00 -0.10589211390E+03  0.10589211390E+03  0.00000000000E+00 0. -1.
      99925    2    1    2    0    0  0.34774305167E+02 -0.78109143254E+01  0.13878585790E+03  0.29956085625E+03  0.26306829829E+03 0.  0.
         25    1    3    3    0    0  0.32884980311E+01  0.16314731870E+00  0.11121868620E+03  0.16741548643E+03  0.12509000000E+03 0.  0.
         25    1    1    2    0    0 -0.34774305167E+02  0.78109143254E+01  0.14032587290E+03  0.19133510234E+03  0.12509000000E+03 0.  0.
         25    1    3    3    0    0  0.31485807136E+02 -0.79740616441E+01  0.27567171699E+02  0.13214536982E+03  0.12509000000E+03 0.  0.
<mgrwt>
<rscale>  2 0.40382606E+03</rscale>
<asrwt>0</asrwt>
<pdfrwt beam="1">  1       21 0.56618212E-01 0.40382606E+03</pdfrwt>
<pdfrwt beam="2">  1       21 0.15572370E-01 0.40382606E+03</pdfrwt>
<totfact> 0.10113424E+05</totfact>
</mgrwt>
</event>
<event>
 6    0  0.1539497E-004  0.4233161E+03  0.7546771E-02  0.1035992E+00
         21   -1    0    0  502  501  0.00000000000E+00  0.00000000000E+00  0.78846219681E+02  0.78846219681E+02  0.00000000000E+00 0.  1.
         21   -1    0    0  501  502 -0.00000000000E+00 -0.00000000000E+00 -0.56818362343E+03  0.56818362343E+03  0.00000000000E+00 0.  1.
      99925    2    1    2    0    0  0.73073224689E+02  0.31949947597E+02 -0.32654293695E+03  0.42677989002E+03  0.26296442636E+03 0.  0.
         25    1    1    2    0    0 -0.73073224689E+02 -0.31949947597E+02 -0.16279446679E+03  0.22024995309E+03  0.12509000000E+03 0.  0.
         25    1    3    3    0    0  0.48294514794E+02  0.62285701159E+01 -0.22397571418E+03  0.26112024795E+03  0.12509000000E+03 0.  0.
         25    1    3    3    0    0  0.24778709895E+02  0.25721377481E+02 -0.10256722277E+03  0.16565964207E+03  0.12509000000E+03 0.  0.
<mgrwt>
<rscale>  2 0.42331610E+03</rscale>
<asrwt>0</asrwt>
<pdfrwt beam="1">  1       21 0.11595032E-01 0.42331610E+03</pdfrwt>
<pdfrwt beam="2">  1       21 0.83556418E-01 0.42331610E+03</pdfrwt>
<totfact> 0.72313611E+04</totfact>
</mgrwt>
</event>
<event>
 6    0  0.1539497E-004  0.3959649E+03  0.7546771E-02  0.1045186E+00
         21   -1    0    0  502  501  0.00000000000E+00  0.00000000000E+00  0.55328670321E+03  0.55328670321E+03  0.00000000000E+00 0.  1.
         21   -1    0    0  501  502 -0.00000000000E+00 -0.00000000000E+00 -0.70844027957E+02  0.70844027957E+02  0.00000000000E+00 0.  1.
      99925    2    1    2    0    0  0.24821608033E+02  0.64040927041E+01  0.28113274898E+03  0.38573962574E+03  0.26287318557E+03 0.  0.
         25    1    3    3    0    0  0.35759861966E+02  0.10959463196E+02  0.96267115125E+02  0.16221511371E+03  0.12509000000E+03 0.  0.
         25    1    1    2    0    0 -0.24821608033E+02 -0.64040927041E+01  0.20130992627E+03  0.23839110542E+03  0.12509000000E+03 0.  0.
         25    1    3    3    0    0 -0.10938253932E+02 -0.45553704918E+01  0.18486563385E+03  0.22352451203E+03  0.12509000000E+03 0.  0.
<mgrwt>
<rscale>  2 0.39596494E+03</rscale>
<asrwt>0</asrwt>
<pdfrwt beam="1">  1       21 0.81365690E-01 0.39596494E+03</pdfrwt>
<pdfrwt beam="2">  1       21 0.10418240E-01 0.39596494E+03</pdfrwt>
<totfact> 0.93886209E+04</totfact>
</mgrwt>
</event>
<event>
 6    0  0.1539497E-004  0.5178223E+03  0.7546771E-02  0.1009229E+00
         21   -1    0    0  502  501  0.00000000000E+00  0.00000000000E+00  0.78858194377E+02  0.78858194377E+02  0.00000000000E+00 0. -1.
         21   -1    0    0  501  502 -0.00000000000E+00 -0.00000000000E+00 -0.85006987436E+03  0.85006987436E+03  0.00000000000E+00 0. -1.
      99925    2    1    2    0    0 -0.12069017775E+03 -0.50479559391E+02 -0.28119820323E+03  0.40655366238E+03  0.26286716412E+03 0.  0.
         25    1    3    3    0    0 -0.53255932322E+02 -0.65143240455E+02 -0.14360831481E+03  0.20820829063E+03  0.12509000000E+03 0.  0.
         25    1    3    3    0    0 -0.67434245423E+02  0.14663681064E+02 -0.13758988842E+03  0.19834537175E+03  0.12509000000E+03 0.  0.
         25    1    1    2    0    0  0.12069017775E+03  0.50479559391E+02 -0.49001347675E+03  0.52237440636E+03  0.12509000000E+03 0.  0.
<mgrwt>
<rscale>  2 0.51782227E+03</rscale>
<asrwt>0</asrwt>
<pdfrwt beam="1">  1       21 0.11596794E-01 0.51782227E+03</pdfrwt>
<pdfrwt beam="2">  1       21 0.12501027E+00 0.51782227E+03</pdfrwt>
<totfact> 0.26419842E+04</totfact>
</mgrwt>
</event>
<event>
 6    0  0.1539497E-004  0.3999386E+03  0.7546771E-02  0.1043801E+00
         21   -1    0    0  502  501  0.00000000000E+00  0.00000000000E+00  0.55039408571E+03  0.55039408571E+03  0.00000000000E+00 0. -1.
         21   -1    0    0  501  502 -0.00000000000E+00 -0.00000000000E+00 -0.72652884320E+02  0.72652884320E+02  0.00000000000E+00 0. -1.
      99925    2    1    2    0    0 -0.20018168085E+02 -0.16244151254E+02  0.37646671977E+03  0.46004811043E+03  0.26315864666E+03 0.  0.
         25    1    3    3    0    0  0.90478859777E+01  0.19949972059E+02  0.14388044165E+03  0.19190871584E+03  0.12509000000E+03 0.  0.
         25    1    3    3    0    0 -0.29066054063E+02 -0.36194123312E+02  0.23258627812E+03  0.26813939459E+03  0.12509000000E+03 0.  0.
         25    1    1    2    0    0  0.20018168085E+02  0.16244151254E+02  0.10127448162E+03  0.16299885960E+03  0.12509000000E+03 0.  0.
<mgrwt>
<rscale>  2 0.39993858E+03</rscale>
<asrwt>0</asrwt>
<pdfrwt beam="1">  1       21 0.80940305E-01 0.39993858E+03</pdfrwt>
<pdfrwt beam="2">  1       21 0.10684248E-01 0.39993858E+03</pdfrwt>
<totfact> 0.90730869E+04</totfact>
</mgrwt>
</event>
<event>
 6    0  0.1539497E-004  0.4064164E+03  0.7546771E-02  0.1041580E+00
         21   -1    0    0  502  501  0.00000000000E+00  0.00000000000E+00  0.18591800533E+03  0.18591800533E+03  0.00000000000E+00 0.  1.
         21   -1    0    0  501  502 -0.00000000000E+00 -0.00000000000E+00 -0.22210634305E+03  0.22210634305E+03  0.00000000000E+00 0.  1.
      99925    2    1    2    0    0 -0.44049598505E+02  0.32556286844E+02 -0.39265534730E+02  0.27143278135E+03  0.26293286906E+03 0.  0.
         25    1    1    2    0    0  0.44049598505E+02 -0.32556286844E+02  0.30771970112E+01  0.13659156703E+03  0.12509000000E+03 0.  0.
         25    1    3    3    0    0 -0.33712657887E+02 -0.19818570237E+02 -0.48960139889E+01  0.13115181311E+03  0.12509000000E+03 0.  0.
         25    1    3    3    0    0 -0.10336940618E+02  0.52374857082E+02 -0.34369520741E+02  0.14028096824E+03  0.12509000000E+03 0.  0.
<mgrwt>
<rscale>  2 0.40641638E+03</rscale>
<asrwt>0</asrwt>
<pdfrwt beam="1">  1       21 0.27340883E-01 0.40641638E+03</pdfrwt>
<pdfrwt beam="2">  1       21 0.32662697E-01 0.40641638E+03</pdfrwt>
<totfact> 0.10846563E+05</totfact>
</mgrwt>
</event>
<event>
 6    0  0.1539497E-004  0.4210182E+03  0.7546771E-02  0.1036735E+00
         21   -1    0    0  502  501  0.00000000000E+00  0.00000000000E+00  0.14526766243E+04  0.14526766243E+04  0.00000000000E+00 0. -1.
         21   -1    0    0  501  502 -0.00000000000E+00 -0.00000000000E+00 -0.30505119318E+02  0.30505119318E+02  0.00000000000E+00 0. -1.
      99925    2    1    2    0    0  0.53560707040E+02  0.17889243658E+02  0.11110461106E+04  0.11431298454E+04  0.26293270830E+03 0.  0.
         25    1    3    3    0    0  0.76885649501E+01  0.22238664627E+02  0.40228433712E+03  0.42194059799E+03  0.12509000000E+03 0.  0.
         25    1    1    2    0    0 -0.53560707040E+02 -0.17889243658E+02  0.31112539433E+03  0.34005189821E+03  0.12509000000E+03 0.  0.
         25    1    3    3    0    0  0.45872142090E+02 -0.43494209699E+01  0.70876177348E+03  0.72118924738E+03  0.12509000000E+03 0.  0.
<mgrwt>
<rscale>  2 0.42101816E+03</rscale>
<asrwt>0</asrwt>
<pdfrwt beam="1">  1       21 0.21362887E+00 0.42101816E+03</pdfrwt>
<pdfrwt beam="2">  1       21 0.44860479E-02 0.42101816E+03</pdfrwt>
<totfact> 0.31795632E+04</totfact>
</mgrwt>
</event>
<event>
 6    0  0.1539497E-004  0.4416692E+03  0.7546771E-02  0.1030236E+00
         21   -1    0    0  502  501  0.00000000000E+00  0.00000000000E+00  0.12161201733E+02  0.12161201733E+02  0.00000000000E+00 0.  1.
         21   -1    0    0  501  502 -0.00000000000E+00 -0.00000000000E+00 -0.40101237177E+04  0.40101237177E+04  0.00000000000E+00 0.  1.
      99925    2    1    2    0    0 -0.20391998843E+02  0.88797247032E+02 -0.21688828538E+04  0.21866703892E+04  0.26300907417E+03 0.  0.
         25    1    1    2    0    0  0.20391998843E+02 -0.88797247032E+02 -0.18290796622E+04  0.18356145302E+04  0.12509000000E+03 0.  0.
         25    1    3    3    0    0  0.13668648720E+02  0.73274724382E+02 -0.10069170944E+04  0.10173915472E+04  0.12509000000E+03 0.  0.
         25    1    3    3    0    0 -0.34060647562E+02  0.15522522650E+02 -0.11619657593E+04  0.11692788420E+04  0.12509000000E+03 0.  0.
<mgrwt>
<rscale>  2 0.44166921E+03</rscale>
<asrwt>0</asrwt>
<pdfrwt beam="1">  1       21 0.17884118E-02 0.44166921E+03</pdfrwt>
<pdfrwt beam="2">  1       21 0.58972414E+00 0.44166921E+03</pdfrwt>
<totfact> 0.47641675E+02</totfact>
</mgrwt>
</event>
<event>
 6    0  0.1539497E-004  0.4468266E+03  0.7546771E-02  0.1028673E+00
         21   -1    0    0  502  501  0.00000000000E+00  0.00000000000E+00  0.18501806309E+03  0.18501806309E+03  0.00000000000E+00 0.  1.
         21   -1    0    0  501  502 -0.00000000000E+00 -0.00000000000E+00 -0.26977641949E+03  0.26977641949E+03  0.00000000000E+00 0.  1.
      99925    2    1    2    0    0  0.67150143716E+02  0.34493028914E+02  0.21042622652E+02  0.27440527528E+03  0.26297633408E+03 0.  0.
         25    1    3    3    0    0  0.24081574430E+02  0.53921671960E+01  0.48095855176E+02  0.13627074917E+03  0.12509000000E+03 0.  0.
         25    1    3    3    0    0  0.43068569286E+02  0.29100861718E+02 -0.27053232524E+02  0.13813452611E+03  0.12509000000E+03 0.  0.
         25    1    1    2    0    0 -0.67150143716E+02 -0.34493028914E+02 -0.10580097905E+03  0.18038920730E+03  0.12509000000E+03 0.  0.
<mgrwt>
<rscale>  2 0.44682664E+03</rscale>
<asrwt>0</asrwt>
<pdfrwt beam="1">  1       21 0.27208539E-01 0.44682664E+03</pdfrwt>
<pdfrwt beam="2">  1       21 0.39673003E-01 0.44682664E+03</pdfrwt>
<totfact> 0.73217276E+04</totfact>
</mgrwt>
</event>
<event>
 6    0  0.1539497E-004  0.4248490E+03  0.7546771E-02  0.1035500E+00
         21   -1    0    0  502  501  0.00000000000E+00  0.00000000000E+00  0.50242945495E+03  0.50242945495E+03  0.00000000000E+00 0. -1.
         21   -1    0    0  501  502 -0.00000000000E+00 -0.00000000000E+00 -0.89811945348E+02  0.89811945348E+02  0.00000000000E+00 0. -1.
      99925    2    1    2    0    0 -0.71479222438E+01  0.40167301489E+02  0.17085570785E+03  0.31699463504E+03  0.26387387297E+03 0.  0.
         25    1    3    3    0    0 -0.35776394073E+02  0.44963189084E+02  0.75097698281E+02  0.15680819855E+03  0.12509000000E+03 0.  0.
         25    1    3    3    0    0  0.28628471829E+02 -0.47958875956E+01  0.95758009569E+02  0.16018643649E+03  0.12509000000E+03 0.  0.
         25    1    1    2    0    0  0.71479222438E+01 -0.40167301489E+02  0.24176180176E+03  0.27524676527E+03  0.12509000000E+03 0.  0.
<mgrwt>
<rscale>  2 0.42484899E+03</rscale>
<asrwt>0</asrwt>
<pdfrwt beam="1">  1       21 0.73886683E-01 0.42484899E+03</pdfrwt>
<pdfrwt beam="2">  1       21 0.13207639E-01 0.42484899E+03</pdfrwt>
<totfact> 0.75630174E+04</totfact>
</mgrwt>
</event>
<event>
 6    0  0.1539497E-004  0.4167321E+03  0.7546771E-02  0.1038135E+00
         21   -1    0    0  502  501  0.00000000000E+00  0.00000000000E+00  0.24184248902E+03  0.24184248902E+03  0.00000000000E+00 0.  1.
         21   -1    0    0  501  502 -0.00000000000E+00 -0.00000000000E+00 -0.17952352331E+03  0.17952352331E+03  0.00000000000E+00 0.  1.
      99925    2    1    2    0    0  0.36321682698E+02 -0.59806868278E+02  0.26290238664E+02  0.27357662368E+03  0.26316699308E+03 0.  0.
         25    1    1    2    0    0 -0.36321682698E+02  0.59806868278E+02  0.36028727042E+02  0.14778938866E+03  0.12509000000E+03 0.  0.
         25    1    3    3    0    0 -0.19589969570E+01  0.33416537100E+01 -0.39048661876E+01  0.12521086374E+03  0.12509000000E+03 0.  0.
         25    1    3    3    0    0  0.38280679655E+02 -0.63148521988E+02  0.30195104852E+02  0.14836575994E+03  0.12509000000E+03 0.  0.
<mgrwt>
<rscale>  2 0.41673212E+03</rscale>
<asrwt>0</asrwt>
<pdfrwt beam="1">  1       21 0.35565072E-01 0.41673212E+03</pdfrwt>
<pdfrwt beam="2">  1       21 0.26400518E-01 0.41673212E+03</pdfrwt>
<totfact> 0.97659432E+04</totfact>
</mgrwt>
</event>
<event>
 6    0  0.1539497E-004  0.4158541E+03  0.7546771E-02  0.1038424E+00
         21   -1    0    0  502  501  0.00000000000E+00  0.00000000000E+00  0.47333785972E+02  0.47333785972E+02  0.00000000000E+00 0. -1.
         21   -1    0    0  501  502 -0.00000000000E+00 -0.00000000000E+00 -0.91337855982E+03  0.91337855982E+03  0.00000000000E+00 0. -1.
      99925    2    1    2    0    0  0.13748752804E+02 -0.54222583683E+02 -0.66605638528E+03  0.71828301496E+03  0.26300240384E+03 0.  0.
         25    1    1    2    0    0 -0.13748752804E+02  0.54222583683E+02 -0.19998838857E+03  0.24242933083E+03  0.12509000000E+03 0.  0.
         25    1    3    3    0    0 -0.26046631237E+02 -0.23220768920E+02 -0.38968963830E+03  0.41075924020E+03  0.12509000000E+03 0.  0.
         25    1    3    3    0    0  0.39795384041E+02 -0.31001814764E+02 -0.27636674697E+03  0.30752377476E+03  0.12509000000E+03 0.  0.
<mgrwt>
<rscale>  2 0.41585413E+03</rscale>
<asrwt>0</asrwt>
<pdfrwt beam="1">  1       21 0.69608507E-02 0.41585413E+03</pdfrwt>
<pdfrwt beam="2">  1       21 0.13432038E+00 0.41585413E+03</pdfrwt>
<totfact> 0.55978400E+04</totfact>
</mgrwt>
</event>
<event>
 6    0  0.1539497E-004  0.4312071E+03  0.7546771E-02  0.1033479E+00
         21   -1    0    0  502  501  0.00000000000E+00  0.00000000000E+00  0.27040160371E+03  0.27040160371E+03  0.00000000000E+00 0.  1.
         21   -1    0    0  501  502 -0.00000000000E+00 -0.00000000000E+00 -0.17191052149E+03  0.17191052149E+03  0.00000000000E+00 0.  1.
      99925    2    1    2    0    0  0.36404920769E+02 -0.27582387644E+02  0.14182381632E+03  0.30227162995E+03  0.26299816926E+03 0.  0.
         25    1    3    3    0    0  0.34892909911E+01 -0.24626061914E+02  0.29433186795E+02  0.13089094186E+03  0.12509000000E+03 0.  0.
         25    1    3    3    0    0  0.32915629778E+02 -0.29563257292E+01  0.11239062952E+03  0.17138068809E+03  0.12509000000E+03 0.  0.
         25    1    1    2    0    0 -0.36404920769E+02  0.27582387644E+02 -0.43332734105E+02  0.14004049525E+03  0.12509000000E+03 0.  0.
<mgrwt>
<rscale>  2 0.43120705E+03</rscale>
<asrwt>0</asrwt>
<pdfrwt beam="1">  1       21 0.39764942E-01 0.43120705E+03</pdfrwt>
<pdfrwt beam="2">  1       21 0.25280959E-01 0.43120705E+03</pdfrwt>
<totfact> 0.84387185E+04</totfact>
</mgrwt>
</event>
<event>
 6    0  0.1539497E-004  0.4222174E+03  0.7546771E-02  0.1036347E+00
         21   -1    0    0  502  501  0.00000000000E+00  0.00000000000E+00  0.12890543959E+03  0.12890543959E+03  0.00000000000E+00 0. -1.
         21   -1    0    0  501  502 -0.00000000000E+00 -0.00000000000E+00 -0.34573315058E+03  0.34573315058E+03  0.00000000000E+00 0. -1.
      99925    2    1    2    0    0  0.55143953213E+02 -0.55002491544E+02 -0.15381256735E+03  0.31437460145E+03  0.26288201634E+03 0.  0.
         25    1    1    2    0    0 -0.55143953213E+02  0.55002491544E+02 -0.63015143635E+02  0.16026398872E+03  0.12509000000E+03 0.  0.
         25    1    3    3    0    0  0.70820094136E+01 -0.18536747608E+02 -0.34464898994E+02  0.13125967862E+03  0.12509000000E+03 0.  0.
         25    1    3    3    0    0  0.48061943799E+02 -0.36465743936E+02 -0.11934766835E+03  0.18311492283E+03  0.12509000000E+03 0.  0.
<mgrwt>
<rscale>  2 0.42221740E+03</rscale>
<asrwt>0</asrwt>
<pdfrwt beam="1">  1       21 0.18956683E-01 0.42221740E+03</pdfrwt>
<pdfrwt beam="2">  1       21 0.50843109E-01 0.42221740E+03</pdfrwt>
<totfact> 0.87814310E+04</totfact>
</mgrwt>
</event>
<event>
 6    0  0.1539497E-004  0.3899662E+03  0.7546771E-02  0.1047310E+00
         21   -1    0    0  502  501  0.00000000000E+00  0.00000000000E+00  0.50004795569E+02  0.50004795569E+02  0.00000000000E+00 0.  1.
         21   -1    0    0  501  502 -0.00000000000E+00 -0.00000000000E+00 -0.76029528541E+03  0.76029528541E+03  0.00000000000E+00 0.  1.
      99925    2    1    2    0    0 -0.12822990263E+02 -0.10366603951E+02 -0.46784431952E+03  0.53698789838E+03  0.26306995293E+03 0.  0.
         25    1    3    3    0    0  0.24822042357E+02  0.13255018475E+01 -0.28227700385E+03  0.30975103833E+03  0.12509000000E+03 0.  0.
         25    1    1    2    0    0  0.12822990263E+02  0.10366603951E+02 -0.24244617032E+03  0.27331218260E+03  0.12509000000E+03 0.  0.
         25    1    3    3    0    0 -0.37645032620E+02 -0.11692105799E+02 -0.18556731567E+03  0.22723686005E+03  0.12509000000E+03 0.  0.
<mgrwt>
<rscale>  2 0.38996621E+03</rscale>
<asrwt>0</asrwt>
<pdfrwt beam="1">  1       21 0.73536469E-02 0.38996621E+03</pdfrwt>
<pdfrwt beam="2">  1       21 0.11180812E+00 0.38996621E+03</pdfrwt>
<totfact> 0.81606451E+04</totfact>
</mgrwt>
</event>
<event>
 6    0  0.1539497E-004  0.4233880E+03  0.7546771E-02  0.1035969E+00
         21   -1    0    0  502  501  0.00000000000E+00  0.00000000000E+00  0.36662389008E+03  0.36662389008E+03  0.00000000000E+00 0. -1.
         21   -1    0    0  501  502 -0.00000000000E+00 -0.00000000000E+00 -0.12223524017E+03  0.12223524017E+03  0.00000000000E+00 0. -1.
      99925    2    1    2    0    0 -0.44328990765E+02  0.32453012021E+02  0.22589195348E+03  0.35099001372E+03  0.26296113339E+03 0.  0.
         25    1    3    3    0    0 -0.34883736543E+02  0.49165766287E+02  0.90969984389E+02  0.16600359577E+03  0.12509000000E+03 0.  0.
         25    1    1    2    0    0  0.44328990765E+02 -0.32453012021E+02  0.18496696432E+02  0.13786911652E+03  0.12509000000E+03 0.  0.
         25    1    3    3    0    0 -0.94452542222E+01 -0.16712754266E+02  0.13492196909E+03  0.18498641795E+03  0.12509000000E+03 0.  0.
<mgrwt>
<rscale>  2 0.42338805E+03</rscale>
<asrwt>0</asrwt>
<pdfrwt beam="1">  1       21 0.53915278E-01 0.42338805E+03</pdfrwt>
<pdfrwt beam="2">  1       21 0.17975771E-01 0.42338805E+03</pdfrwt>
<totfact> 0.85599825E+04</totfact>
</mgrwt>
</event>
<event>
 6    0  0.1539497E-004  0.4039044E+03  0.7546771E-02  0.1042436E+00
         21   -1    0    0  502  501  0.00000000000E+00  0.00000000000E+00  0.61835593854E+02  0.61835593854E+02  0.00000000000E+00 0.  1.
         21   -1    0    0  501  502 -0.00000000000E+00 -0.00000000000E+00 -0.65956660454E+03  0.65956660454E+03  0.00000000000E+00 0.  1.
      99925    2    1    2    0    0  0.21053949208E+02 -0.34333020272E+02 -0.33644371965E+03  0.42892898319E+03  0.26298986875E+03 0.  0.
         25    1    3    3    0    0  0.42846464059E+01  0.23294257437E+02 -0.16128734844E+03  0.20548016325E+03  0.12509000000E+03 0.  0.
         25    1    1    2    0    0 -0.21053949208E+02  0.34333020272E+02 -0.26128729104E+03  0.29247321521E+03  0.12509000000E+03 0.  0.
         25    1    3    3    0    0  0.16769302802E+02 -0.57627277709E+02 -0.17515637121E+03  0.22344881993E+03  0.12509000000E+03 0.  0.
<mgrwt>
<rscale>  2 0.40390441E+03</rscale>
<asrwt>0</asrwt>
<pdfrwt beam="1">  1       21 0.90934697E-02 0.40390441E+03</pdfrwt>
<pdfrwt beam="2">  1       21 0.96995089E-01 0.40390441E+03</pdfrwt>
<totfact> 0.79052584E+04</totfact>
</mgrwt>
</event>
<event>
 6    0  0.1539497E-004  0.4548661E+03  0.7546771E-02  0.1026281E+00
         21   -1    0    0  502  501  0.00000000000E+00  0.00000000000E+00  0.38268540778E+02  0.38268540778E+02  0.00000000000E+00 0. -1.
         21   -1    0    0  501  502 -0.00000000000E+00 -0.00000000000E+00 -0.13516529510E+04  0.13516529510E+04  0.00000000000E+00 0. -1.
      99925    2    1    2    0    0 -0.39822602154E+02 -0.74584233101E+02 -0.10559089424E+04  0.10914423935E+04  0.26297177840E+03 0.  0.
         25    1    1    2    0    0  0.39822602154E+02  0.74584233101E+02 -0.25747546775E+03  0.29847909820E+03  0.12509000000E+03 0.  0.
         25    1    3    3    0    0 -0.56089610726E+02 -0.19531701877E+02 -0.54580639599E+03  0.56309827012E+03  0.12509000000E+03 0.  0.
         25    1    3    3    0    0  0.16267008571E+02 -0.55052531223E+02 -0.51010254646E+03  0.52834412343E+03  0.12509000000E+03 0.  0.
<mgrwt>
<rscale>  2 0.45486607E+03</rscale>
<asrwt>0</asrwt>
<pdfrwt beam="1">  1       21 0.56277280E-02 0.45486607E+03</pdfrwt>
<pdfrwt beam="2">  1       21 0.19877244E+00 0.45486607E+03</pdfrwt>
<totfact> 0.26629530E+04</totfact>
</mgrwt>
</event>
<event>
 6    0  0.1539497E-004  0.4067727E+03  0.7546771E-02  0.1041459E+00
         21   -1    0    0  502  501  0.00000000000E+00  0.00000000000E+00  0.60070662349E+02  0.60070662349E+02  0.00000000000E+00 0. -1.
         21   -1    0    0  501  502 -0.00000000000E+00 -0.00000000000E+00 -0.68862259446E+03  0.68862259446E+03  0.00000000000E+00 0. -1.
      99925    2    1    2    0    0 -0.45773362557E+02 -0.82919845771E+01 -0.35535674251E+03  0.44464214687E+03  0.26318105290E+03 0.  0.
         25    1    1    2    0    0  0.45773362557E+02  0.82919845771E+01 -0.27319518960E+03  0.30405110993E+03  0.12509000000E+03 0.  0.
         25    1    3    3    0    0 -0.41475990555E+02  0.61992582896E+01 -0.23969462287E+03  0.27360502358E+03  0.12509000000E+03 0.  0.
         25    1    3    3    0    0 -0.42973720023E+01 -0.14491242867E+02 -0.11566211963E+03  0.17103712329E+03  0.12509000000E+03 0.  0.
<mgrwt>
<rscale>  2 0.40677274E+03</rscale>
<asrwt>0</asrwt>
<pdfrwt beam="1">  1       21 0.88339207E-02 0.40677274E+03</pdfrwt>
<pdfrwt beam="2">  1       21 0.10126803E+00 0.40677274E+03</pdfrwt>
<totfact> 0.74952738E+04</totfact>
</mgrwt>
</event>
<event>
 6    0  0.1539497E-004  0.4000681E+03  0.7546771E-02  0.1043756E+00
         21   -1    0    0  502  501  0.00000000000E+00  0.00000000000E+00  0.50879426852E+03  0.50879426852E+03  0.00000000000E+00 0.  1.
         21   -1    0    0  501  502 -0.00000000000E+00 -0.00000000000E+00 -0.78644025931E+02  0.78644025931E+02  0.00000000000E+00 0.  1.
      99925    2    1    2    0    0  0.20303554054E+02 -0.18607621977E+02  0.34028365412E+03  0.43097107831E+03  0.26302970779E+03 0.  0.
         25    1    3    3    0    0  0.37582827496E+02  0.14228335863E+02  0.20088494860E+03  0.24003579970E+03  0.12509000000E+03 0.  0.
         25    1    1    2    0    0 -0.20303554054E+02  0.18607621977E+02  0.89866588469E+02  0.15646721614E+03  0.12509000000E+03 0.  0.
         25    1    3    3    0    0 -0.17279273442E+02 -0.32835957840E+02  0.13939870551E+03  0.19093527861E+03  0.12509000000E+03 0.  0.
<mgrwt>
<rscale>  2 0.40006814E+03</rscale>
<asrwt>0</asrwt>
<pdfrwt beam="1">  1       21 0.74822685E-01 0.40006814E+03</pdfrwt>
<pdfrwt beam="2">  1       21 0.11565298E-01 0.40006814E+03</pdfrwt>
<totfact> 0.94129480E+04</totfact>
</mgrwt>
</event>
<event>
 6    0  0.1539497E-004  0.4080122E+03  0.7546771E-02  0.1041040E+00
         21   -1    0    0  502  501  0.00000000000E+00  0.00000000000E+00  0.54489006832E+03  0.54489006832E+03  0.00000000000E+00 0. -1.
         21   -1    0    0  501  502 -0.00000000000E+00 -0.00000000000E+00 -0.76379589711E+02  0.76379589711E+02  0.00000000000E+00 0. -1.
      99925    2    1    2    0    0 -0.59160456642E+02  0.46316106810E+01  0.30994347937E+03  0.41076452081E+03  0.26294699030E+03 0.  0.
         25    1    3    3    0    0  0.54559721214E+01 -0.18800312494E+02  0.15394533905E+03  0.19932359343E+03  0.12509000000E+03 0.  0.
         25    1    1    2    0    0  0.59160456642E+02 -0.46316106810E+01  0.15856699924E+03  0.21050513722E+03  0.12509000000E+03 0.  0.
         25    1    3    3    0    0 -0.64616428763E+02  0.23431923175E+02  0.15599814032E+03  0.21144092738E+03  0.12509000000E+03 0.  0.
<mgrwt>
<rscale>  2 0.40801216E+03</rscale>
<asrwt>0</asrwt>
<pdfrwt beam="1">  1       21 0.80130890E-01 0.40801216E+03</pdfrwt>
<pdfrwt beam="2">  1       21 0.11232293E-01 0.40801216E+03</pdfrwt>
<totfact> 0.84684959E+04</totfact>
</mgrwt>
</event>
<event>
 6    0  0.1539497E-004  0.4420778E+03  0.7546771E-02  0.1030111E+00
         21   -1    0    0  502  501  0.00000000000E+00  0.00000000000E+00  0.85861047554E+02  0.85861047554E+02  0.00000000000E+00 0.  1.
         21   -1    0    0  501  502 -0.00000000000E+00 -0.00000000000E+00 -0.56903807911E+03  0.56903807911E+03  0.00000000000E+00 0.  1.
      99925    2    1    2    0    0  0.62299164432E+02 -0.35621665762E+02 -0.20359784003E+03  0.34031667103E+03  0.26308414463E+03 0.  0.
         25    1    3    3    0    0 -0.90396693986E+01 -0.10521451293E+02 -0.82381324903E+02  0.15042143249E+03  0.12509000000E+03 0.  0.
         25    1    1    2    0    0 -0.62299164432E+02  0.35621665762E+02 -0.27957919152E+03  0.31458245563E+03  0.12509000000E+03 0.  0.
         25    1    3    3    0    0  0.71338833830E+02 -0.25100214468E+02 -0.12121651513E+03  0.18989523854E+03  0.12509000000E+03 0.  0.
<mgrwt>
<rscale>  2 0.44207785E+03</rscale>
<asrwt>0</asrwt>
<pdfrwt beam="1">  1       21 0.12626625E-01 0.44207785E+03</pdfrwt>
<pdfrwt beam="2">  1       21 0.83682069E-01 0.44207785E+03</pdfrwt>
<totfact> 0.61444922E+04</totfact>
</mgrwt>
</event>
<event>
 6    0  0.1539497E-004  0.5008301E+03  0.7546771E-02  0.1013562E+00
         21   -1    0    0  502  501  0.00000000000E+00  0.00000000000E+00  0.52126590260E+03  0.52126590260E+03  0.00000000000E+00 0.  1.
         21   -1    0    0  501  502 -0.00000000000E+00 -0.00000000000E+00 -0.12029888478E+03  0.12029888478E+03  0.00000000000E+00 0.  1.
      99925    2    1    2    0    0  0.13915347040E+03 -0.49734600678E+02  0.19623501223E+03  0.35978487141E+03  0.26286832225E+03 0.  0.
         25    1    1    2    0    0 -0.13915347040E+03  0.49734600678E+02  0.20473200560E+03  0.28177991597E+03  0.12509000000E+03 0.  0.
         25    1    3    3    0    0  0.71248895001E+02 -0.57470189469E+02  0.72906469030E+02  0.17129532697E+03  0.12509000000E+03 0.  0.
         25    1    3    3    0    0  0.67904575396E+02  0.77355887912E+01  0.12332854320E+03  0.18848954443E+03  0.12509000000E+03 0.  0.
<mgrwt>
<rscale>  2 0.50083014E+03</rscale>
<asrwt>0</asrwt>
<pdfrwt beam="1">  1       21 0.76656750E-01 0.50083014E+03</pdfrwt>
<pdfrwt beam="2">  1       21 0.17691013E-01 0.50083014E+03</pdfrwt>
<totfact> 0.39740830E+04</totfact>
</mgrwt>
</event>
<event>
 6    0  0.1539497E-004  0.4302523E+03  0.7546771E-02  0.1033780E+00
         21   -1    0    0  502  501  0.00000000000E+00  0.00000000000E+00  0.50859953763E+03  0.50859953763E+03  0.00000000000E+00 0.  1.
         21   -1    0    0  501  502 -0.00000000000E+00 -0.00000000000E+00 -0.90993527360E+02  0.90993527360E+02  0.00000000000E+00 0.  1.
      99925    2    1    2    0    0 -0.50909192714E+01 -0.77288232366E+02  0.32725112535E+03  0.42693472708E+03  0.26302200254E+03 0.  0.
         25    1    3    3    0    0 -0.24515796016E+02 -0.15457357812E+02  0.19646098897E+03  0.23470062303E+03  0.12509000000E+03 0.  0.
         25    1    3    3    0    0  0.19424876744E+02 -0.61830874554E+02  0.13079013639E+03  0.19223410405E+03  0.12509000000E+03 0.  0.
         25    1    1    2    0    0  0.50909192714E+01  0.77288232366E+02  0.90354884917E+02  0.17265833791E+03  0.12509000000E+03 0.  0.
<mgrwt>
<rscale>  2 0.43025233E+03</rscale>
<asrwt>0</asrwt>
<pdfrwt beam="1">  1       21 0.74794049E-01 0.43025233E+03</pdfrwt>
<pdfrwt beam="2">  1       21 0.13381401E-01 0.43025233E+03</pdfrwt>
<totfact> 0.71732769E+04</totfact>
</mgrwt>
</event>
<event>
 6    0  0.1539497E-004  0.3985717E+03  0.7546771E-02  0.1044275E+00
         21   -1    0    0  502  501  0.00000000000E+00  0.00000000000E+00  0.83042162488E+02  0.83042162488E+02  0.00000000000E+00 0. -1.
         21   -1    0    0  501  502 -0.00000000000E+00 -0.00000000000E+00 -0.47824924887E+03  0.47824924887E+03  0.00000000000E+00 0. -1.
      99925    2    1    2    0    0 -0.32228067294E+02  0.58122027412E+00 -0.22730504280E+03  0.34944809549E+03  0.26345284743E+03 0.  0.
         25    1    3    3    0    0 -0.51450190575E+02 -0.20811845123E+02 -0.11027107984E+03  0.17574832618E+03  0.12509000000E+03 0.  0.
         25    1    3    3    0    0  0.19222123281E+02  0.21393065397E+02 -0.11703396296E+03  0.17369976931E+03  0.12509000000E+03 0.  0.
         25    1    1    2    0    0  0.32228067294E+02 -0.58122027412E+00 -0.16790204358E+03  0.21184331587E+03  0.12509000000E+03 0.  0.
<mgrwt>
<rscale>  2 0.39857171E+03</rscale>
<asrwt>0</asrwt>
<pdfrwt beam="1">  1       21 0.12212083E-01 0.39857171E+03</pdfrwt>
<pdfrwt beam="2">  1       21 0.70330769E-01 0.39857171E+03</pdfrwt>
<totfact> 0.98110781E+04</totfact>
</mgrwt>
</event>
<event>
 6    0  0.1539497E-004  0.4159966E+03  0.7546771E-02  0.1038377E+00
         21   -1    0    0  502  501  0.00000000000E+00  0.00000000000E+00  0.21634070457E+03  0.21634070457E+03  0.00000000000E+00 0.  1.
         21   -1    0    0  501  502 -0.00000000000E+00 -0.00000000000E+00 -0.19997762557E+03  0.19997762557E+03  0.00000000000E+00 0.  1.
      99925    2    1    2    0    0 -0.64391890922E+02  0.58845460544E+01 -0.18423463303E+02  0.27127159586E+03  0.26280774574E+03 0.  0.
         25    1    3    3    0    0 -0.13527903322E+02  0.18566689479E+02 -0.41313254382E+02  0.13372366737E+03  0.12509000000E+03 0.  0.
         25    1    3    3    0    0 -0.50863987600E+02 -0.12682143424E+02  0.22889791079E+02  0.13754792849E+03  0.12509000000E+03 0.  0.
         25    1    1    2    0    0  0.64391890922E+02 -0.58845460544E+01  0.34786542307E+02  0.14504673428E+03  0.12509000000E+03 0.  0.
<mgrwt>
<rscale>  2 0.41599664E+03</rscale>
<asrwt>0</asrwt>
<pdfrwt beam="1">  1       21 0.31814810E-01 0.41599664E+03</pdfrwt>
<pdfrwt beam="2">  1       21 0.29408474E-01 0.41599664E+03</pdfrwt>
<totfact> 0.98837487E+04</totfact>
</mgrwt>
</event>
<event>
 6    0  0.1539497E-004  0.4569931E+03  0.7546771E-02  0.1025657E+00
         21   -1    0    0  502  501  0.00000000000E+00  0.00000000000E+00  0.24929028827E+03  0.24929028827E+03  0.00000000000E+00 0. -1.
         21   -1    0    0  501  502 -0.00000000000E+00 -0.00000000000E+00 -0.20943720814E+03  0.20943720814E+03  0.00000000000E+00 0. -1.
      99925    2    1    2    0    0 -0.10680612753E+03 -0.31794627652E+01  0.67737546565E+02  0.29186614850E+03  0.26302056110E+03 0.  0.
         25    1    3    3    0    0 -0.65929147182E+02 -0.16759601667E+02 -0.18087668800E+01  0.14240195376E+03  0.12509000000E+03 0.  0.
         25    1    3    3    0    0 -0.40876980348E+02  0.13580138902E+02  0.69546313445E+02  0.14946419474E+03  0.12509000000E+03 0.  0.
         25    1    1    2    0    0  0.10680612753E+03  0.31794627652E+01 -0.27884466435E+02  0.16686134792E+03  0.12509000000E+03 0.  0.
<mgrwt>
<rscale>  2 0.45699305E+03</rscale>
<asrwt>0</asrwt>
<pdfrwt beam="1">  1       21 0.36660336E-01 0.45699305E+03</pdfrwt>
<pdfrwt beam="2">  1       21 0.30799589E-01 0.45699305E+03</pdfrwt>
<totfact> 0.67198643E+04</totfact>
</mgrwt>
</event>
<event>
 6    0  0.1539497E-004  0.3911740E+03  0.7546771E-02  0.1046879E+00
         21   -1    0    0  502  501  0.00000000000E+00  0.00000000000E+00  0.24054420774E+04  0.24054420774E+04  0.00000000000E+00 0. -1.
         21   -1    0    0  501  502 -0.00000000000E+00 -0.00000000000E+00 -0.15903223311E+02  0.15903223311E+02  0.00000000000E+00 0. -1.
      99925    2    1    2    0    0 -0.60842344090E+01 -0.11099307719E+02  0.14704656207E+04  0.14937121141E+04  0.26219558634E+03 0.  0.
         25    1    3    3    0    0  0.80000983539E+01  0.23186570046E+02  0.58835610615E+03  0.60200667301E+03  0.12509000000E+03 0.  0.
         25    1    3    3    0    0 -0.14084332763E+02 -0.34285877765E+02  0.88210951454E+03  0.89170544105E+03  0.12509000000E+03 0.  0.
         25    1    1    2    0    0  0.60842344090E+01  0.11099307719E+02  0.91907323344E+03  0.92763318670E+03  0.12509000000E+03 0.  0.
<mgrwt>
<rscale>  2 0.39117404E+03</rscale>
<asrwt>0</asrwt>
<pdfrwt beam="1">  1       21 0.35374123E+00 0.39117404E+03</pdfrwt>
<pdfrwt beam="2">  1       21 0.23387110E-02 0.39117404E+03</pdfrwt>
<totfact> 0.13553857E+04</totfact>
</mgrwt>
</event>
<event>
 6    0  0.1539497E-004  0.3900526E+03  0.7546771E-02  0.1047280E+00
         21   -1    0    0  502  501  0.00000000000E+00  0.00000000000E+00  0.42224942400E+02  0.42224942400E+02  0.00000000000E+00 0. -1.
         21   -1    0    0  501  502 -0.00000000000E+00 -0.00000000000E+00 -0.90077684813E+03  0.90077684813E+03  0.00000000000E+00 0. -1.
      99925    2    1    2    0    0  0.22944216383E+01  0.12137450563E+02 -0.54794374033E+03  0.60792340778E+03  0.26301320324E+03 0.  0.
         25    1    1    2    0    0 -0.22944216383E+01 -0.12137450563E+02 -0.31060816540E+03  0.33507838276E+03  0.12509000000E+03 0.  0.
         25    1    3    3    0    0  0.37639656481E+02  0.18649280370E+02 -0.30479914307E+03  0.33213636524E+03  0.12509000000E+03 0.  0.
         25    1    3    3    0    0 -0.35345234843E+02 -0.65118298066E+01 -0.24314459726E+03  0.27578704253E+03  0.12509000000E+03 0.  0.
<mgrwt>
<rscale>  2 0.39005256E+03</rscale>
<asrwt>0</asrwt>
<pdfrwt beam="1">  1       21 0.62095508E-02 0.39005256E+03</pdfrwt>
<pdfrwt beam="2">  1       21 0.13246717E+00 0.39005256E+03</pdfrwt>
<totfact> 0.71343706E+04</totfact>
</mgrwt>
</event>
<event>
 6    0  0.1539497E-004  0.4531089E+03  0.7546771E-02  0.1026799E+00
         21   -1    0    0  502  501  0.00000000000E+00  0.00000000000E+00  0.53001103800E+03  0.53001103800E+03  0.00000000000E+00 0. -1.
         21   -1    0    0  501  502 -0.00000000000E+00 -0.00000000000E+00 -0.96841225213E+02  0.96841225213E+02  0.00000000000E+00 0. -1.
      99925    2    1    2    0    0 -0.40638041792E+02 -0.82250736656E+02  0.36028607270E+03  0.45545745060E+03  0.26309466168E+03 0.  0.
         25    1    3    3    0    0 -0.58810124054E+01 -0.76487624847E+02  0.16417383057E+03  0.22019422746E+03  0.12509000000E+03 0.  0.
         25    1    3    3    0    0 -0.34757029387E+02 -0.57631118089E+01  0.19611224213E+03  0.23526322314E+03  0.12509000000E+03 0.  0.
         25    1    1    2    0    0  0.40638041792E+02  0.82250736656E+02  0.72883740082E+02  0.17139481261E+03  0.12509000000E+03 0.  0.
<mgrwt>
<rscale>  2 0.45310890E+03</rscale>
<asrwt>0</asrwt>
<pdfrwt beam="1">  1       21 0.77942799E-01 0.45310890E+03</pdfrwt>
<pdfrwt beam="2">  1       21 0.14241357E-01 0.45310890E+03</pdfrwt>
<totfact> 0.57914974E+04</totfact>
</mgrwt>
</event>
<event>
 6    0  0.1539497E-004  0.4553350E+03  0.7546771E-02  0.1026143E+00
         21   -1    0    0  502  501  0.00000000000E+00  0.00000000000E+00  0.19534736331E+03  0.19534736331E+03  0.00000000000E+00 0. -1.
         21   -1    0    0  501  502 -0.00000000000E+00 -0.00000000000E+00 -0.26533498127E+03  0.26533498127E+03  0.00000000000E+00 0. -1.
      99925    2    1    2    0    0  0.18200820119E+02 -0.95907769704E+02 -0.10254253610E+03  0.29870425674E+03  0.26302032459E+03 0.  0.
         25    1    1    2    0    0 -0.18200820119E+02  0.95907769704E+02  0.32554918140E+02  0.16197808783E+03  0.12509000000E+03 0.  0.
         25    1    3    3    0    0  0.39110195646E+02 -0.74139233673E+02 -0.69536455279E+02  0.16585855445E+03  0.12509000000E+03 0.  0.
         25    1    3    3    0    0 -0.20909375527E+02 -0.21768536031E+02 -0.33006080818E+02  0.13284570229E+03  0.12509000000E+03 0.  0.
<mgrwt>
<rscale>  2 0.45533499E+03</rscale>
<asrwt>0</asrwt>
<pdfrwt beam="1">  1       21 0.28727553E-01 0.45533499E+03</pdfrwt>
<pdfrwt beam="2">  1       21 0.39019850E-01 0.45533499E+03</pdfrwt>
<totfact> 0.67949156E+04</totfact>
</mgrwt>
</event>
<event>
 6    0  0.1539497E-004  0.3933190E+03  0.7546771E-02  0.1046118E+00
         21   -1    0    0  502  501  0.00000000000E+00  0.00000000000E+00  0.30778557751E+03  0.30778557751E+03  0.00000000000E+00 0. -1.
         21   -1    0    0  501  502 -0.00000000000E+00 -0.00000000000E+00 -0.12565550237E+03  0.12565550237E+03  0.00000000000E+00 0. -1.
      99925    2    1    2    0    0 -0.25276869952E+02 -0.15350852262E+02  0.11794324927E+03  0.28976775063E+03  0.26302123572E+03 0.  0.
         25    1    3    3    0    0  0.17879303397E+02 -0.13743385844E+02  0.29156482029E+02  0.13040766346E+03  0.12509000000E+03 0.  0.
         25    1    1    2    0    0  0.25276869952E+02  0.15350852262E+02  0.64186825871E+02  0.14367332924E+03  0.12509000000E+03 0.  0.
         25    1    3    3    0    0 -0.43156173349E+02 -0.16074664180E+01  0.88786767240E+02  0.15936008717E+03  0.12509000000E+03 0.  0.
<mgrwt>
<rscale>  2 0.39331896E+03</rscale>
<asrwt>0</asrwt>
<pdfrwt beam="1">  1       21 0.45262585E-01 0.39331896E+03</pdfrwt>
<pdfrwt beam="2">  1       21 0.18478750E-01 0.39331896E+03</pdfrwt>
<totfact> 0.11845854E+05</totfact>
</mgrwt>
</event>
<event>
 6    0  0.1539497E-004  0.4175337E+03  0.7546771E-02  0.1037872E+00
         21   -1    0    0  502  501  0.00000000000E+00  0.00000000000E+00  0.58132735913E+03  0.58132735913E+03  0.00000000000E+00 0. -1.
         21   -1    0    0  501  502 -0.00000000000E+00 -0.00000000000E+00 -0.74972538060E+02  0.74972538060E+02  0.00000000000E+00 0. -1.
      99925    2    1    2    0    0 -0.53733039540E+02 -0.45956852173E+02  0.30423721115E+03  0.40831137298E+03  0.26298027466E+03 0.  0.
         25    1    3    3    0    0 -0.49473826969E+02 -0.18695521560E+02  0.20662327983E+03  0.24726073273E+03  0.12509000000E+03 0.  0.
         25    1    3    3    0    0 -0.42592125710E+01 -0.27261330612E+02  0.97613931319E+02  0.16105064025E+03  0.12509000000E+03 0.  0.
         25    1    1    2    0    0  0.53733039540E+02  0.45956852173E+02  0.20211760992E+03  0.24798852421E+03  0.12509000000E+03 0.  0.
<mgrwt>
<rscale>  2 0.41753365E+03</rscale>
<asrwt>0</asrwt>
<pdfrwt beam="1">  1       21 0.85489315E-01 0.41753365E+03</pdfrwt>
<pdfrwt beam="2">  1       21 0.11025374E-01 0.41753365E+03</pdfrwt>
<totfact> 0.75203919E+04</totfact>
</mgrwt>
</event>
<event>
 6    0  0.1539497E-004  0.4529402E+03  0.7546771E-02  0.1026849E+00
         21   -1    0    0  502  501  0.00000000000E+00  0.00000000000E+00  0.33525327457E+02  0.33525327457E+02  0.00000000000E+00 0. -1.
         21   -1    0    0  501  502 -0.00000000000E+00 -0.00000000000E+00 -0.15298493091E+04  0.15298493091E+04  0.00000000000E+00 0. -1.
      99925    2    1    2    0    0  0.99098429524E+02  0.60800063340E+01 -0.76905977562E+03  0.81878199714E+03  0.26285652960E+03 0.  0.
         25    1    1    2    0    0 -0.99098429524E+02 -0.60800063340E+01 -0.72726420603E+03  0.74459263942E+03  0.12509000000E+03 0.  0.
         25    1    3    3    0    0  0.83979056724E+01 -0.61963724297E+01 -0.32101579657E+03  0.34468473944E+03  0.12509000000E+03 0.  0.
         25    1    3    3    0    0  0.90700523852E+02  0.12276378764E+02 -0.44804397905E+03  0.47409725770E+03  0.12509000000E+03 0.  0.
<mgrwt>
<rscale>  2 0.45294017E+03</rscale>
<asrwt>0</asrwt>
<pdfrwt beam="1">  1       21 0.49301924E-02 0.45294017E+03</pdfrwt>
<pdfrwt beam="2">  1       21 0.22497797E+00 0.45294017E+03</pdfrwt>
<totfact> 0.22627597E+04</totfact>
</mgrwt>
</event>
<event>
 6    0  0.1539497E-004  0.5037852E+03  0.7546771E-02  0.1012796E+00
         21   -1    0    0  502  501  0.00000000000E+00  0.00000000000E+00  0.36289347948E+03  0.36289347948E+03  0.00000000000E+00 0.  1.
         21   -1    0    0  501  502 -0.00000000000E+00 -0.00000000000E+00 -0.17484439067E+03  0.17484439067E+03  0.00000000000E+00 0.  1.
      99925    2    1    2    0    0 -0.13161405140E+03  0.54266861323E+02  0.17789497101E+03  0.34795440150E+03  0.26298002595E+03 0.  0.
         25    1    3    3    0    0 -0.70173066836E+02 -0.10557101550E+02  0.10353972811E+03  0.17721087749E+03  0.12509000000E+03 0.  0.
         25    1    1    2    0    0  0.13161405140E+03 -0.54266861323E+02  0.10154117804E+02  0.18978346865E+03  0.12509000000E+03 0.  0.
         25    1    3    3    0    0 -0.61440984564E+02  0.64823962873E+02  0.74355242898E+02  0.17074352401E+03  0.12509000000E+03 0.  0.
<mgrwt>
<rscale>  2 0.50378523E+03</rscale>
<asrwt>0</asrwt>
<pdfrwt beam="1">  1       21 0.53366688E-01 0.50378523E+03</pdfrwt>
<pdfrwt beam="2">  1       21 0.25712410E-01 0.50378523E+03</pdfrwt>
<totfact> 0.43329603E+04</totfact>
</mgrwt>
</event>
<event>
 6    0  0.1539497E-004  0.4340422E+03  0.7546771E-02  0.1032591E+00
         21   -1    0    0  502  501  0.00000000000E+00  0.00000000000E+00  0.16465040698E+04  0.16465040698E+04  0.00000000000E+00 0. -1.
         21   -1    0    0  501  502 -0.00000000000E+00 -0.00000000000E+00 -0.28604946304E+02  0.28604946304E+02  0.00000000000E+00 0. -1.
      99925    2    1    2    0    0  0.64574678732E+02  0.64258860630E+02  0.10910126523E+04  0.11259679122E+04  0.26305140497E+03 0.  0.
         25    1    1    2    0    0 -0.64574678732E+02 -0.64258860630E+02  0.52688647120E+03  0.54914110385E+03  0.12509000000E+03 0.  0.
         25    1    3    3    0    0 -0.82912527831E+01  0.38875138795E+02  0.53329261843E+03  0.54920719793E+03  0.12509000000E+03 0.  0.
         25    1    3    3    0    0  0.72865931515E+02  0.25383721835E+02  0.55772003382E+03  0.57676071428E+03  0.12509000000E+03 0.  0.
<mgrwt>
<rscale>  2 0.43404221E+03</rscale>
<asrwt>0</asrwt>
<pdfrwt beam="1">  1       21 0.24213289E+00 0.43404221E+03</pdfrwt>
<pdfrwt beam="2">  1       21 0.42066109E-02 0.43404221E+03</pdfrwt>
<totfact> 0.23360975E+04</totfact>
</mgrwt>
</event>
<event>
 6    0  0.1539497E-004  0.4768835E+03  0.7546771E-02  0.1019995E+00
         21   -1    0    0  502  501  0.00000000000E+00  0.00000000000E+00  0.18935136305E+03  0.18935136305E+03  0.00000000000E+00 0.  1.
         21   -1    0    0  501  502 -0.00000000000E+00 -0.00000000000E+00 -0.30025912944E+03  0.30025912944E+03  0.00000000000E+00 0.  1.
      99925    2    1    2    0    0  0.68279854530E+02  0.11372302613E+03 -0.70452917502E+02  0.30285083917E+03  0.26298279791E+03 0.  0.
         25    1    3    3    0    0  0.43245765197E+02  0.65120582791E+02  0.35854435292E+01  0.14755083875E+03  0.12509000000E+03 0.  0.
         25    1    3    3    0    0  0.25034089333E+02  0.48602443340E+02 -0.74038361031E+02  0.15530000042E+03  0.12509000000E+03 0.  0.
         25    1    1    2    0    0 -0.68279854530E+02 -0.11372302613E+03 -0.40454848884E+02  0.18675965331E+03  0.12509000000E+03 0.  0.
<mgrwt>
<rscale>  2 0.47688353E+03</rscale>
<asrwt>0</asrwt>
<pdfrwt beam="1">  1       21 0.27845789E-01 0.47688353E+03</pdfrwt>
<pdfrwt beam="2">  1       21 0.44155754E-01 0.47688353E+03</pdfrwt>
<totfact> 0.55686241E+04</totfact>
</mgrwt>
</event>
<event>
 6    0  0.1539497E-004  0.4259396E+03  0.7546771E-02  0.1035150E+00
         21   -1    0    0  502  501  0.00000000000E+00  0.00000000000E+00  0.44507622826E+03  0.44507622826E+03  0.00000000000E+00 0.  1.
         21   -1    0    0  501  502 -0.00000000000E+00 -0.00000000000E+00 -0.10190645818E+03  0.10190645818E+03  0.00000000000E+00 0.  1.
      99925    2    1    2    0    0 -0.56481609937E+02 -0.59013153028E+02  0.24126801912E+03  0.36613966213E+03  0.26301192111E+03 0.  0.
         25    1    3    3    0    0  0.93351392869E+01 -0.30700888189E+02  0.91528265176E+02  0.15828651486E+03  0.12509000000E+03 0.  0.
         25    1    1    2    0    0  0.56481609937E+02  0.59013153028E+02  0.10190175095E+03  0.18084302430E+03  0.12509000000E+03 0.  0.
         25    1    3    3    0    0 -0.65816749223E+02 -0.28312264839E+02  0.14973975395E+03  0.20785314727E+03  0.12509000000E+03 0.  0.
<mgrwt>
<rscale>  2 0.42593963E+03</rscale>
<asrwt>0</asrwt>
<pdfrwt beam="1">  1       21 0.65452386E-01 0.42593963E+03</pdfrwt>
<pdfrwt beam="2">  1       21 0.14986244E-01 0.42593963E+03</pdfrwt>
<totfact> 0.78649977E+04</totfact>
</mgrwt>
</event>
<event>
 6    0  0.1539497E-004  0.4179789E+03  0.7546771E-02  0.1037726E+00
         21   -1    0    0  502  501  0.00000000000E+00  0.00000000000E+00  0.54580445760E+03  0.54580445760E+03  0.00000000000E+00 0. -1.
         21   -1    0    0  501  502 -0.00000000000E+00 -0.00000000000E+00 -0.80022400913E+02  0.80022400913E+02  0.00000000000E+00 0. -1.
      99925    2    1    2    0    0 -0.60585795934E+02  0.32265794841E+02  0.26655491147E+03  0.38077444845E+03  0.26310822788E+03 0.  0.
         25    1    1    2    0    0  0.60585795934E+02 -0.32265794841E+02  0.19922714521E+03  0.24505241006E+03  0.12509000000E+03 0.  0.
         25    1    3    3    0    0  0.72584317233E+00 -0.68453974840E+01  0.14648316996E+03  0.19274909467E+03  0.12509000000E+03 0.  0.
         25    1    3    3    0    0 -0.61311639106E+02  0.39111192325E+02  0.12007174151E+03  0.18802535378E+03  0.12509000000E+03 0.  0.
<mgrwt>
<rscale>  2 0.41797887E+03</rscale>
<asrwt>0</asrwt>
<pdfrwt beam="1">  1       21 0.80265360E-01 0.41797887E+03</pdfrwt>
<pdfrwt beam="2">  1       21 0.11768000E-01 0.41797887E+03</pdfrwt>
<totfact> 0.77355247E+04</totfact>
</mgrwt>
</event>
<event>
 6    0  0.1539497E-004  0.4492227E+03  0.7546771E-02  0.1027954E+00
         21   -1    0    0  502  501  0.00000000000E+00  0.00000000000E+00  0.20202631893E+04  0.20202631893E+04  0.00000000000E+00 0. -1.
         21   -1    0    0  501  502 -0.00000000000E+00 -0.00000000000E+00 -0.24972119024E+02  0.24972119024E+02  0.00000000000E+00 0. -1.
      99925    2    1    2    0    0  0.18739882420E+02  0.25306417459E+02  0.17308729964E+04  0.17510312570E+04  0.26305424374E+03 0.  0.
         25    1    3    3    0    0  0.13538480477E+01  0.95130355025E+01  0.11223649774E+04  0.11293551174E+04  0.12509000000E+03 0.  0.
         25    1    3    3    0    0  0.17386034372E+02  0.15793381956E+02  0.60850801908E+03  0.62167613955E+03  0.12509000000E+03 0.  0.
         25    1    1    2    0    0 -0.18739882420E+02 -0.25306417459E+02  0.26441807385E+03  0.29420405136E+03  0.12509000000E+03 0.  0.
<mgrwt>
<rscale>  2 0.44922267E+03</rscale>
<asrwt>0</asrwt>
<pdfrwt beam="1">  1       21 0.29709742E+00 0.44922267E+03</pdfrwt>
<pdfrwt beam="2">  1       21 0.36723718E-02 0.44922267E+03</pdfrwt>
<totfact> 0.13584336E+04</totfact>
</mgrwt>
</event>
<event>
 6    0  0.1539497E-004  0.6096516E+03  0.7546771E-02  0.9885582E-01
         21   -1    0    0  502  501  0.00000000000E+00  0.00000000000E+00  0.66437477948E+02  0.66437477948E+02  0.00000000000E+00 0.  1.
         21   -1    0    0  501  502 -0.00000000000E+00 -0.00000000000E+00 -0.13985895853E+04  0.13985895853E+04  0.00000000000E+00 0.  1.
      99925    2    1    2    0    0  0.61001703991E+02 -0.19037428447E+03 -0.49536913303E+03  0.59564979745E+03  0.26352329529E+03 0.  0.
         25    1    3    3    0    0  0.72517291279E+02 -0.10842789634E+03 -0.26525571441E+03  0.32097269100E+03  0.12509000000E+03 0.  0.
         25    1    3    3    0    0 -0.11515587289E+02 -0.81946388129E+02 -0.23011341862E+03  0.27467710645E+03  0.12509000000E+03 0.  0.
         25    1    1    2    0    0 -0.61001703991E+02  0.19037428447E+03 -0.83678297431E+03  0.86937726579E+03  0.12509000000E+03 0.  0.
<mgrwt>
<rscale>  2 0.60965159E+03</rscale>
<asrwt>0</asrwt>
<pdfrwt beam="1">  1       21 0.97702181E-02 0.60965159E+03</pdfrwt>
<pdfrwt beam="2">  1       21 0.20567492E+00 0.60965159E+03</pdfrwt>
<totfact> 0.86290731E+03</totfact>
</mgrwt>
</event>
<event>
 6    0  0.1539497E-004  0.4353804E+03  0.7546771E-02  0.1032174E+00
         21   -1    0    0  502  501  0.00000000000E+00  0.00000000000E+00  0.24923334683E+02  0.24923334683E+02  0.00000000000E+00 0. -1.
         21   -1    0    0  501  502 -0.00000000000E+00 -0.00000000000E+00 -0.19013919865E+04  0.19013919865E+04  0.00000000000E+00 0. -1.
      99925    2    1    2    0    0  0.88402866351E+02 -0.16995027758E+02 -0.10873363862E+04  0.11222748132E+04  0.26286202052E+03 0.  0.
         25    1    3    3    0    0  0.66595646099E+02  0.20844654757E+02 -0.49544195290E+03  0.51573221395E+03  0.12509000000E+03 0.  0.
         25    1    3    3    0    0  0.21807220252E+02 -0.37839682516E+02 -0.59189443335E+03  0.60654259930E+03  0.12509000000E+03 0.  0.
         25    1    1    2    0    0 -0.88402866351E+02  0.16995027758E+02 -0.78913226553E+03  0.80404050791E+03  0.12509000000E+03 0.  0.
<mgrwt>
<rscale>  2 0.43538043E+03</rscale>
<asrwt>0</asrwt>
<pdfrwt beam="1">  1       21 0.36651959E-02 0.43538043E+03</pdfrwt>
<pdfrwt beam="2">  1       21 0.27961650E+00 0.43538043E+03</pdfrwt>
<totfact> 0.17461890E+04</totfact>
</mgrwt>
</event>
<event>
 6    0  0.1539497E-004  0.4058845E+03  0.7546771E-02  0.1041761E+00
         21   -1    0    0  502  501  0.00000000000E+00  0.00000000000E+00  0.32855732148E+02  0.32855732148E+02  0.00000000000E+00 0. -1.
         21   -1    0    0  501  502 -0.00000000000E+00 -0.00000000000E+00 -0.12535275813E+04  0.12535275813E+04  0.00000000000E+00 0. -1.
      99925    2    1    2    0    0 -0.20263651572E+02  0.51942142626E+02 -0.79788121388E+03  0.84196455695E+03  0.26302334866E+03 0.  0.
         25    1    1    2    0    0  0.20263651572E+02 -0.51942142626E+02 -0.42279063527E+03  0.44441875649E+03  0.12509000000E+03 0.  0.
         25    1    3    3    0    0  0.22452970966E+02  0.13359801208E+02 -0.45092117856E+03  0.46867903470E+03  0.12509000000E+03 0.  0.
         25    1    3    3    0    0 -0.42716622538E+02  0.38582341418E+02 -0.34696003532E+03  0.37328552225E+03  0.12509000000E+03 0.  0.
<mgrwt>
<rscale>  2 0.40588455E+03</rscale>
<asrwt>0</asrwt>
<pdfrwt beam="1">  1       21 0.48317245E-02 0.40588455E+03</pdfrwt>
<pdfrwt beam="2">  1       21 0.18434232E+00 0.40588455E+03</pdfrwt>
<totfact> 0.44108269E+04</totfact>
</mgrwt>
</event>
<event>
 6    0  0.1539497E-004  0.4204069E+03  0.7546771E-02  0.1036934E+00
         21   -1    0    0  502  501  0.00000000000E+00  0.00000000000E+00  0.19621632115E+03  0.19621632115E+03  0.00000000000E+00 0. -1.
         21   -1    0    0  501  502 -0.00000000000E+00 -0.00000000000E+00 -0.22518762519E+03  0.22518762519E+03  0.00000000000E+00 0. -1.
      99925    2    1    2    0    0  0.53346001378E+02  0.36583138429E+02 -0.59631514522E+02  0.27728011595E+03  0.26295289178E+03 0.  0.
         25    1    3    3    0    0  0.19508901922E+02  0.34009836767E+02 -0.67464978617E+02  0.14743234954E+03  0.12509000000E+03 0.  0.
         25    1    1    2    0    0 -0.53346001378E+02 -0.36583138429E+02  0.30660210485E+02  0.14412383039E+03  0.12509000000E+03 0.  0.
         25    1    3    3    0    0  0.33837099456E+02  0.25733016617E+01  0.78334640943E+01  0.12984776641E+03  0.12509000000E+03 0.  0.
<mgrwt>
<rscale>  2 0.42040689E+03</rscale>
<asrwt>0</asrwt>
<pdfrwt beam="1">  1       21 0.28855341E-01 0.42040689E+03</pdfrwt>
<pdfrwt beam="2">  1       21 0.33115827E-01 0.42040689E+03</pdfrwt>
<totfact> 0.94622429E+04</totfact>
</mgrwt>
</event>
<event>
 6    0  0.1539497E-004  0.3923403E+03  0.7546771E-02  0.1046465E+00
         21   -1    0    0  502  501  0.00000000000E+00  0.00000000000E+00  0.11018787011E+03  0.11018787011E+03  0.00000000000E+00 0.  1.
         21   -1    0    0  501  502 -0.00000000000E+00 -0.00000000000E+00 -0.34924656675E+03  0.34924656675E+03  0.00000000000E+00 0.  1.
      99925    2    1    2    0    0 -0.68135357625E+01 -0.23949065417E+02 -0.15267258531E+03  0.30538882564E+03  0.26331242758E+03 0.  0.
         25    1    1    2    0    0  0.68135357625E+01  0.23949065417E+02 -0.86386111332E+02  0.15404561122E+03  0.12509000000E+03 0.  0.
         25    1    3    3    0    0  0.18122927653E+01  0.28760424624E+02 -0.78432842770E+02  0.15043159693E+03  0.12509000000E+03 0.  0.
         25    1    3    3    0    0 -0.86258285277E+01 -0.52709490041E+02 -0.74239742535E+02  0.15495722871E+03  0.12509000000E+03 0.  0.
<mgrwt>
<rscale>  2 0.39234034E+03</rscale>
<asrwt>0</asrwt>
<pdfrwt beam="1">  1       21 0.16204098E-01 0.39234034E+03</pdfrwt>
<pdfrwt beam="2">  1       21 0.51359789E-01 0.39234034E+03</pdfrwt>
<totfact> 0.11605755E+05</totfact>
</mgrwt>
</event>
<event>
 5    0  0.1539497E-004  0.4800877E+03  0.7546771E-02  0.1019111E+00
         21   -1    0    0  502  501  0.00000000000E+00  0.00000000000E+00  0.18733360517E+03  0.18733360517E+03  0.00000000000E+00 0. -1.
         21   -1    0    0  501  502 -0.00000000000E+00 -0.00000000000E+00 -0.30758521042E+03  0.30758521042E+03  0.00000000000E+00 0. -1.
         25    1    1    2    0    0  0.34996699605E+01 -0.49970820526E+02  0.88771659796E+02  0.16136060943E+03  0.12509000000E+03 0.  0.
         25    1    1    2    0    0 -0.19077420078E+02  0.42909179970E+02 -0.11148175838E+03  0.17401389667E+03  0.12509000000E+03 0.  0.
         25    1    1    2    0    0  0.15577750117E+02  0.70616405564E+01 -0.97541506672E+02  0.15954430949E+03  0.12509000000E+03 0.  0.
<mgrwt>
<rscale>  2 0.48008769E+03</rscale>
<asrwt>0</asrwt>
<pdfrwt beam="1">  1       21 0.27549060E-01 0.48008769E+03</pdfrwt>
<pdfrwt beam="2">  1       21 0.45233119E-01 0.48008769E+03</pdfrwt>
<totfact> 0.54038679E+04</totfact>
</mgrwt>
</event>
<event>
 6    0  0.1539497E-004  0.4071647E+03  0.7546771E-02  0.1041327E+00
         21   -1    0    0  502  501  0.00000000000E+00  0.00000000000E+00  0.25060661661E+03  0.25060661661E+03  0.00000000000E+00 0. -1.
         21   -1    0    0  501  502 -0.00000000000E+00 -0.00000000000E+00 -0.16538179165E+03  0.16538179165E+03  0.00000000000E+00 0. -1.
      99925    2    1    2    0    0 -0.19483468487E+02 -0.53256534421E+02  0.68873922416E+02  0.27767454736E+03  0.26295184552E+03 0.  0.
         25    1    3    3    0    0  0.27728915225E+02 -0.40217320969E+02  0.27153770366E+02  0.13700788660E+03  0.12509000000E+03 0.  0.
         25    1    3    3    0    0 -0.47212383713E+02 -0.13039213452E+02  0.41720152051E+02  0.14066666076E+03  0.12509000000E+03 0.  0.
         25    1    1    2    0    0  0.19483468487E+02  0.53256534421E+02  0.16350902547E+02  0.13831386090E+03  0.12509000000E+03 0.  0.
<mgrwt>
<rscale>  2 0.40716469E+03</rscale>
<asrwt>0</asrwt>
<pdfrwt beam="1">  1       21 0.36853915E-01 0.40716469E+03</pdfrwt>
<pdfrwt beam="2">  1       21 0.24320851E-01 0.40716469E+03</pdfrwt>
<totfact> 0.10677991E+05</totfact>
</mgrwt>
</event>
<event>
 6    0  0.1539497E-004  0.3993558E+03  0.7546771E-02  0.1044003E+00
         21   -1    0    0  502  501  0.00000000000E+00  0.00000000000E+00  0.10042834763E+03  0.10042834763E+03  0.00000000000E+00 0.  1.
         21   -1    0    0  501  502 -0.00000000000E+00 -0.00000000000E+00 -0.39701195578E+03  0.39701195578E+03  0.00000000000E+00 0.  1.
      99925    2    1    2    0    0 -0.23831146127E+02  0.22742508688E+01 -0.15218711849E+03  0.30490212521E+03  0.26311839764E+03 0.  0.
         25    1    3    3    0    0 -0.18081186999E+02 -0.29268091733E+02 -0.45775870274E+02  0.13757357637E+03  0.12509000000E+03 0.  0.
         25    1    1    2    0    0  0.23831146127E+02 -0.22742508688E+01 -0.14439648966E+03  0.19253817821E+03  0.12509000000E+03 0.  0.
         25    1    3    3    0    0 -0.57499591282E+01  0.31542342602E+02 -0.10641124822E+03  0.16732854883E+03  0.12509000000E+03 0.  0.
<mgrwt>
<rscale>  2 0.39935575E+03</rscale>
<asrwt>0</asrwt>
<pdfrwt beam="1">  1       21 0.14768875E-01 0.39935575E+03</pdfrwt>
<pdfrwt beam="2">  1       21 0.58384110E-01 0.39935575E+03</pdfrwt>
<totfact> 0.10446631E+05</totfact>
</mgrwt>
</event>
<event>
 6    0  0.1539497E-004  0.4109114E+03  0.7546771E-02  0.1040066E+00
         21   -1    0    0  502  501  0.00000000000E+00  0.00000000000E+00  0.13468124093E+04  0.13468124093E+04  0.00000000000E+00 0.  1.
         21   -1    0    0  501  502 -0.00000000000E+00 -0.00000000000E+00 -0.31342191967E+02  0.31342191967E+02  0.00000000000E+00 0.  1.
      99925    2    1    2    0    0  0.24708520811E+02  0.44347000930E+02  0.99459258625E+03  0.10300351825E+04  0.26302261703E+03 0.  0.
         25    1    3    3    0    0  0.12450783634E+02 -0.18661827807E+02  0.49174673377E+03  0.50790318379E+03  0.12509000000E+03 0.  0.
         25    1    3    3    0    0  0.12257737177E+02  0.63008828737E+02  0.50284585248E+03  0.52213199871E+03  0.12509000000E+03 0.  0.
         25    1    1    2    0    0 -0.24708520811E+02 -0.44347000930E+02  0.32087763104E+03  0.34811941872E+03  0.12509000000E+03 0.  0.
<mgrwt>
<rscale>  2 0.41091144E+03</rscale>
<asrwt>0</asrwt>
<pdfrwt beam="1">  1       21 0.19806061E+00 0.41091144E+03</pdfrwt>
<pdfrwt beam="2">  1       21 0.46091468E-02 0.41091144E+03</pdfrwt>
<totfact> 0.38526099E+04</totfact>
</mgrwt>
</event>
<event>
 6    0  0.1539497E-004  0.3897081E+03  0.7546771E-02  0.1047403E+00
         21   -1    0    0  502  501  0.00000000000E+00  0.00000000000E+00  0.48005130695E+03  0.48005130695E+03  0.00000000000E+00 0. -1.
         21   -1    0    0  501  502 -0.00000000000E+00 -0.00000000000E+00 -0.79091737775E+02  0.79091737775E+02  0.00000000000E+00 0. -1.
      99925    2    1    2    0    0  0.11935894983E+01 -0.12933703888E+02  0.25648061991E+03  0.36759571315E+03  0.26301253694E+03 0.  0.
         25    1    1    2    0    0 -0.11935894983E+01  0.12933703888E+02  0.14447894926E+03  0.19154733157E+03  0.12509000000E+03 0.  0.
         25    1    3    3    0    0  0.37778063821E+02  0.83102459450E+01  0.13715409230E+03  0.18961802506E+03  0.12509000000E+03 0.  0.
         25    1    3    3    0    0 -0.36584474323E+02 -0.21243949832E+02  0.11932652761E+03  0.17797768809E+03  0.12509000000E+03 0.  0.
<mgrwt>
<rscale>  2 0.38970806E+03</rscale>
<asrwt>0</asrwt>
<pdfrwt beam="1">  1       21 0.70595779E-01 0.38970806E+03</pdfrwt>
<pdfrwt beam="2">  1       21 0.11631138E-01 0.38970806E+03</pdfrwt>
<totfact> 0.10649314E+05</totfact>
</mgrwt>
</event>
<event>
 6    0  0.1539497E-004  0.3995378E+03  0.7546771E-02  0.1043940E+00
         21   -1    0    0  502  501  0.00000000000E+00  0.00000000000E+00  0.48152677217E+03  0.48152677217E+03  0.00000000000E+00 0.  1.
         21   -1    0    0  501  502 -0.00000000000E+00 -0.00000000000E+00 -0.82877228779E+02  0.82877228779E+02  0.00000000000E+00 0.  1.
      99925    2    1    2    0    0  0.20460594607E+02  0.29886134866E+02  0.30242549735E+03  0.40248305689E+03  0.26309620417E+03 0.  0.
         25    1    3    3    0    0 -0.21395874735E+02 -0.47463840257E+01  0.12005588182E+03  0.17476050606E+03  0.12509000000E+03 0.  0.
         25    1    3    3    0    0  0.41856469342E+02  0.34632518892E+02  0.18236961552E+03  0.22772255083E+03  0.12509000000E+03 0.  0.
         25    1    1    2    0    0 -0.20460594607E+02 -0.29886134866E+02  0.96224046049E+02  0.16192094407E+03  0.12509000000E+03 0.  0.
<mgrwt>
<rscale>  2 0.39953776E+03</rscale>
<asrwt>0</asrwt>
<pdfrwt beam="1">  1       21 0.70812759E-01 0.39953776E+03</pdfrwt>
<pdfrwt beam="2">  1       21 0.12187828E-01 0.39953776E+03</pdfrwt>
<totfact> 0.96945422E+04</totfact>
</mgrwt>
</event>
<event>
 6    0  0.1539497E-004  0.4457398E+03  0.7546771E-02  0.1029000E+00
         21   -1    0    0  502  501  0.00000000000E+00  0.00000000000E+00  0.29967501019E+02  0.29967501019E+02  0.00000000000E+00 0.  1.
         21   -1    0    0  501  502 -0.00000000000E+00 -0.00000000000E+00 -0.16574951516E+04  0.16574951516E+04  0.00000000000E+00 0.  1.
      99925    2    1    2    0    0 -0.54612073125E+02  0.54909842814E+02 -0.76820985656E+03  0.81564148484E+03  0.26292028964E+03 0.  0.
         25    1    1    2    0    0  0.54612073125E+02 -0.54909842814E+02 -0.85931779403E+03  0.87182116779E+03  0.12509000000E+03 0.  0.
         25    1    3    3    0    0  0.63166740869E+01  0.78381263349E+01 -0.30899309377E+03  0.33350498751E+03  0.12509000000E+03 0.  0.
         25    1    3    3    0    0 -0.60928747212E+02  0.47071716480E+02 -0.45921676279E+03  0.48213649733E+03  0.12509000000E+03 0.  0.
<mgrwt>
<rscale>  2 0.44573978E+03</rscale>
<asrwt>0</asrwt>
<pdfrwt beam="1">  1       21 0.44069840E-02 0.44573978E+03</pdfrwt>
<pdfrwt beam="2">  1       21 0.24374937E+00 0.44573978E+03</pdfrwt>
<totfact> 0.20992979E+04</totfact>
</mgrwt>
</event>
<event>
 6    0  0.1539497E-004  0.3964997E+03  0.7546771E-02  0.1044998E+00
         21   -1    0    0  502  501  0.00000000000E+00  0.00000000000E+00  0.22536883806E+02  0.22536883806E+02  0.00000000000E+00 0.  1.
         21   -1    0    0  501  502 -0.00000000000E+00 -0.00000000000E+00 -0.17439412755E+04  0.17439412755E+04  0.00000000000E+00 0.  1.
      99925    2    1    2    0    0  0.34833477310E+02  0.82970542083E+01 -0.10992278172E+04  0.11308419346E+04  0.26309594186E+03 0.  0.
         25    1    1    2    0    0 -0.34833477310E+02 -0.82970542083E+01 -0.62217657452E+03  0.63563622476E+03  0.12509000000E+03 0.  0.
         25    1    3    3    0    0  0.53735919204E+02  0.22283233498E+02 -0.54548877610E+03  0.56266295813E+03  0.12509000000E+03 0.  0.
         25    1    3    3    0    0 -0.18902441894E+02 -0.13986179290E+02 -0.55373904110E+03  0.56817897643E+03  0.12509000000E+03 0.  0.
<mgrwt>
<rscale>  2 0.39649969E+03</rscale>
<asrwt>0</asrwt>
<pdfrwt beam="1">  1       21 0.33142466E-02 0.39649969E+03</pdfrwt>
<pdfrwt beam="2">  1       21 0.25646203E+00 0.39649969E+03</pdfrwt>
<totfact> 0.29027057E+04</totfact>
</mgrwt>
</event>
<event>
 6    0  0.1539497E-004  0.5008710E+03  0.7546771E-02  0.1013552E+00
         21   -1    0    0  502  501  0.00000000000E+00  0.00000000000E+00  0.28052787444E+03  0.28052787444E+03  0.00000000000E+00 0. -1.
         21   -1    0    0  501  502 -0.00000000000E+00 -0.00000000000E+00 -0.22357116462E+03  0.22357116462E+03  0.00000000000E+00 0. -1.
      99925    2    1    2    0    0 -0.61965214470E+02 -0.10317052841E+03  0.12814599343E+03  0.31648435963E+03  0.26316745339E+03 0.  0.
         25    1    3    3    0    0 -0.68502492444E+02 -0.47377939238E+02  0.85397913975E+02  0.17285130144E+03  0.12509000000E+03 0.  0.
         25    1    1    2    0    0  0.61965214470E+02  0.10317052841E+03 -0.71189283604E+02  0.18761467943E+03  0.12509000000E+03 0.  0.
         25    1    3    3    0    0  0.65372779744E+01 -0.55792589173E+02  0.42748079454E+02  0.14363305820E+03  0.12509000000E+03 0.  0.
<mgrwt>
<rscale>  2 0.50087102E+03</rscale>
<asrwt>0</asrwt>
<pdfrwt beam="1">  1       21 0.41254099E-01 0.50087102E+03</pdfrwt>
<pdfrwt beam="2">  1       21 0.32878112E-01 0.50087102E+03</pdfrwt>
<totfact> 0.45858163E+04</totfact>
</mgrwt>
</event>
<event>
 6    0  0.1539497E-004  0.4205901E+03  0.7546771E-02  0.1036874E+00
         21   -1    0    0  502  501  0.00000000000E+00  0.00000000000E+00  0.23131696530E+03  0.23131696530E+03  0.00000000000E+00 0.  1.
         21   -1    0    0  501  502 -0.00000000000E+00 -0.00000000000E+00 -0.19118363079E+03  0.19118363079E+03  0.00000000000E+00 0.  1.
      99925    2    1    2    0    0 -0.16202465047E+02 -0.71618941677E+02  0.59837188421E+01  0.27348550615E+03  0.26337563384E+03 0.  0.
         25    1    3    3    0    0  0.91779480887E+01 -0.42848073010E+02 -0.33696848712E+02  0.13675956202E+03  0.12509000000E+03 0.  0.
         25    1    3    3    0    0 -0.25380413135E+02 -0.28770868667E+02  0.39680567554E+02  0.13672594412E+03  0.12509000000E+03 0.  0.
         25    1    1    2    0    0  0.16202465047E+02  0.71618941677E+02  0.34149615668E+02  0.14901508994E+03  0.12509000000E+03 0.  0.
<mgrwt>
<rscale>  2 0.42059014E+03</rscale>
<asrwt>0</asrwt>
<pdfrwt beam="1">  1       21 0.34017201E-01 0.42059014E+03</pdfrwt>
<pdfrwt beam="2">  1       21 0.28115240E-01 0.42059014E+03</pdfrwt>
<totfact> 0.94359919E+04</totfact>
</mgrwt>
</event>
<event>
 6    0  0.1539497E-004  0.4767914E+03  0.7546771E-02  0.1020021E+00
         21   -1    0    0  502  501  0.00000000000E+00  0.00000000000E+00  0.66176680539E+02  0.66176680539E+02  0.00000000000E+00 0.  1.
         21   -1    0    0  501  502 -0.00000000000E+00 -0.00000000000E+00 -0.85879956317E+03  0.85879956317E+03  0.00000000000E+00 0.  1.
      99925    2    1    2    0    0  0.75221800240E+02 -0.84227604702E+02 -0.62429878046E+03  0.68678909020E+03  0.26301649855E+03 0.  0.
         25    1    1    2    0    0 -0.75221800240E+02  0.84227604702E+02 -0.16832410216E+03  0.23818715350E+03  0.12509000000E+03 0.  0.
         25    1    3    3    0    0  0.19759398140E+02 -0.29066555747E+02 -0.20936700307E+03  0.24640890518E+03  0.12509000000E+03 0.  0.
         25    1    3    3    0    0  0.55462402099E+02 -0.55161048955E+02 -0.41493177739E+03  0.44038018502E+03  0.12509000000E+03 0.  0.
<mgrwt>
<rscale>  2 0.47679138E+03</rscale>
<asrwt>0</asrwt>
<pdfrwt beam="1">  1       21 0.97318660E-02 0.47679138E+03</pdfrwt>
<pdfrwt beam="2">  1       21 0.12629404E+00 0.47679138E+03</pdfrwt>
<totfact> 0.35684429E+04</totfact>
</mgrwt>
</event>
<event>
 6    0  0.1635151E-004  0.3974106E+03  0.7546771E-02  0.1044680E+00
         21   -1    0    0  502  501  0.00000000000E+00  0.00000000000E+00  0.32720432600E+03  0.32720432600E+03  0.00000000000E+00 0. -1.
         21   -1    0    0  501  502 -0.00000000000E+00 -0.00000000000E+00 -0.12067015537E+03  0.12067015537E+03  0.00000000000E+00 0. -1.
      99925    2    1    2    0    0 -0.17137655087E+02  0.36283204647E+02  0.13575364122E+03  0.29865128745E+03  0.26297028393E+03 0.  0.
         25    1    1    2    0    0  0.17137655087E+02 -0.36283204647E+02  0.70780529411E+02  0.14922319392E+03  0.12509000000E+03 0.  0.
         25    1    3    3    0    0 -0.22383055016E+02  0.20389553889E+02  0.25790122240E+02  0.13126070838E+03  0.12509000000E+03 0.  0.
         25    1    3    3    0    0  0.52453999294E+01  0.15893650758E+02  0.10996351898E+03  0.16739057907E+03  0.12509000000E+03 0.  0.
<mgrwt>
<rscale>  2 0.39741060E+03</rscale>
<asrwt>0</asrwt>
<pdfrwt beam="1">  1       21 0.48118283E-01 0.39741060E+03</pdfrwt>
<pdfrwt beam="2">  1       21 0.17745611E-01 0.39741060E+03</pdfrwt>
<totfact> 0.11232156E+05</totfact>
</mgrwt>
</event>
<event>
 6    0  0.1539497E-004  0.4303685E+03  0.7546771E-02  0.1033744E+00
         21   -1    0    0  502  501  0.00000000000E+00  0.00000000000E+00  0.30215228505E+03  0.30215228505E+03  0.00000000000E+00 0.  1.
         21   -1    0    0  501  502 -0.00000000000E+00 -0.00000000000E+00 -0.15324812483E+03  0.15324812483E+03  0.00000000000E+00 0.  1.
      99925    2    1    2    0    0  0.53539038941E+01  0.87117294380E+02  0.10410630474E+03  0.29642732026E+03  0.26346336794E+03 0.  0.
         25    1    1    2    0    0 -0.53539038941E+01 -0.87117294380E+02  0.44797855487E+02  0.15897308962E+03  0.12509000000E+03 0.  0.
         25    1    3    3    0    0  0.17464217413E+02  0.42944580117E+02  0.10906881454E+02  0.13384955739E+03  0.12509000000E+03 0.  0.
         25    1    3    3    0    0 -0.12110313519E+02  0.44172714263E+02  0.93199423286E+02  0.16257776287E+03  0.12509000000E+03 0.  0.
<mgrwt>
<rscale>  2 0.43036854E+03</rscale>
<asrwt>0</asrwt>
<pdfrwt beam="1">  1       21 0.44434160E-01 0.43036854E+03</pdfrwt>
<pdfrwt beam="2">  1       21 0.22536489E-01 0.43036854E+03</pdfrwt>
<totfact> 0.83745742E+04</totfact>
</mgrwt>
</event>
<event>
 6    0  0.1539497E-004  0.4463293E+03  0.7546771E-02  0.1028822E+00
         21   -1    0    0  502  501  0.00000000000E+00  0.00000000000E+00  0.65400451052E+02  0.65400451052E+02  0.00000000000E+00 0. -1.
         21   -1    0    0  501  502 -0.00000000000E+00 -0.00000000000E+00 -0.76150043760E+03  0.76150043760E+03  0.00000000000E+00 0. -1.
      99925    2    1    2    0    0 -0.10289722692E+03  0.18519524472E+02 -0.42712189505E+03  0.51237341147E+03  0.26298780857E+03 0.  0.
         25    1    1    2    0    0  0.10289722692E+03 -0.18519524472E+02 -0.26897809150E+03  0.31452747718E+03  0.12509000000E+03 0.  0.
         25    1    3    3    0    0 -0.45065678098E+02 -0.25349604765E+02 -0.24399093336E+03  0.27902079038E+03  0.12509000000E+03 0.  0.
         25    1    3    3    0    0 -0.57831548825E+02  0.43869129237E+02 -0.18313096169E+03  0.23335262109E+03  0.12509000000E+03 0.  0.
<mgrwt>
<rscale>  2 0.44632935E+03</rscale>
<asrwt>0</asrwt>
<pdfrwt beam="1">  1       21 0.96177140E-02 0.44632935E+03</pdfrwt>
<pdfrwt beam="2">  1       21 0.11198535E+00 0.44632935E+03</pdfrwt>
<totfact> 0.49793079E+04</totfact>
</mgrwt>
</event>
<event>
 6    0  0.1539497E-004  0.3970200E+03  0.7546771E-02  0.1044816E+00
         21   -1    0    0  502  501  0.00000000000E+00  0.00000000000E+00  0.25500721083E+03  0.25500721083E+03  0.00000000000E+00 0.  1.
         21   -1    0    0  501  502 -0.00000000000E+00 -0.00000000000E+00 -0.15452983158E+03  0.15452983158E+03  0.00000000000E+00 0.  1.
      99925    2    1    2    0    0  0.38436024700E+02 -0.78094340387E+01  0.63947281797E+02  0.27344783867E+03  0.26295655605E+03 0.  0.
         25    1    1    2    0    0 -0.38436024700E+02  0.78094340387E+01  0.36530097449E+02  0.13608920374E+03  0.12509000000E+03 0.  0.
         25    1    3    3    0    0  0.19563804936E+02  0.36468164800E+02  0.34990181091E+02  0.13632494409E+03  0.12509000000E+03 0.  0.
         25    1    3    3    0    0  0.18872219764E+02 -0.44277598839E+02  0.28957100706E+02  0.13712289458E+03  0.12509000000E+03 0.  0.
<mgrwt>
<rscale>  2 0.39702001E+03</rscale>
<asrwt>0</asrwt>
<pdfrwt beam="1">  1       21 0.37501060E-01 0.39702001E+03</pdfrwt>
<pdfrwt beam="2">  1       21 0.22724975E-01 0.39702001E+03</pdfrwt>
<totfact> 0.11772046E+05</totfact>
</mgrwt>
</event>
<event>
 6    0  0.1539497E-004  0.4644831E+03  0.7546771E-02  0.1023489E+00
         21   -1    0    0  502  501  0.00000000000E+00  0.00000000000E+00  0.12055663875E+03  0.12055663875E+03  0.00000000000E+00 0.  1.
         21   -1    0    0  501  502 -0.00000000000E+00 -0.00000000000E+00 -0.44739241808E+03  0.44739241808E+03  0.00000000000E+00 0.  1.
      99925    2    1    2    0    0 -0.13569934626E+02  0.10691924406E+03 -0.13469742283E+03  0.31461030334E+03  0.26309766129E+03 0.  0.
         25    1    1    2    0    0  0.13569934626E+02 -0.10691924406E+03 -0.19213835650E+03  0.25333875348E+03  0.12509000000E+03 0.  0.
         25    1    3    3    0    0 -0.15454586593E+02  0.33293894299E+02 -0.10271549270E+03  0.16596779262E+03  0.12509000000E+03 0.  0.
         25    1    3    3    0    0  0.18846519672E+01  0.73625349764E+02 -0.31981930128E+02  0.14864251073E+03  0.12509000000E+03 0.  0.
<mgrwt>
<rscale>  2 0.46448305E+03</rscale>
<asrwt>0</asrwt>
<pdfrwt beam="1">  1       21 0.17728918E-01 0.46448305E+03</pdfrwt>
<pdfrwt beam="2">  1       21 0.65793002E-01 0.46448305E+03</pdfrwt>
<totfact> 0.56349362E+04</totfact>
</mgrwt>
</event>
<event>
 6    0  0.1539497E-004  0.5406483E+03  0.7546771E-02  0.1003682E+00
         21   -1    0    0  502  501  0.00000000000E+00  0.00000000000E+00  0.34914658700E+02  0.34914658700E+02  0.00000000000E+00 0. -1.
         21   -1    0    0  501  502 -0.00000000000E+00 -0.00000000000E+00 -0.20929648628E+04  0.20929648628E+04  0.00000000000E+00 0. -1.
      99925    2    1    2    0    0 -0.16727823611E+03  0.65670944133E+02 -0.11047854818E+04  0.11497916829E+04  0.26301192376E+03 0.  0.
         25    1    3    3    0    0 -0.44180671476E+02  0.13348410890E+02 -0.40186477656E+03  0.42340632795E+03  0.12509000000E+03 0.  0.
         25    1    1    2    0    0  0.16727823611E+03 -0.65670944133E+02 -0.95326472224E+03  0.97808783857E+03  0.12509000000E+03 0.  0.
         25    1    3    3    0    0 -0.12309756463E+03  0.52322533243E+02 -0.70292070527E+03  0.72638535496E+03  0.12509000000E+03 0.  0.
<mgrwt>
<rscale>  2 0.54064833E+03</rscale>
<asrwt>0</asrwt>
<pdfrwt beam="1">  1       21 0.51345070E-02 0.54064833E+03</pdfrwt>
<pdfrwt beam="2">  1       21 0.30778905E+00 0.54064833E+03</pdfrwt>
<totfact> 0.63505164E+03</totfact>
</mgrwt>
</event>
<event>
 6    0  0.1539497E-004  0.3966068E+03  0.7546771E-02  0.1044961E+00
         21   -1    0    0  502  501  0.00000000000E+00  0.00000000000E+00  0.17597118243E+03  0.17597118243E+03  0.00000000000E+00 0.  1.
         21   -1    0    0  501  502 -0.00000000000E+00 -0.00000000000E+00 -0.22346981263E+03  0.22346981263E+03  0.00000000000E+00 0.  1.
      99925    2    1    2    0    0 -0.26684362446E+02 -0.96632106218E+01 -0.57616294261E+02  0.27077356303E+03  0.26304610286E+03 0.  0.
         25    1    3    3    0    0 -0.10574484309E+02 -0.26986925830E+02  0.58215983920E+01  0.12853603772E+03  0.12509000000E+03 0.  0.
         25    1    3    3    0    0 -0.16109878137E+02  0.17323715208E+02 -0.63437892653E+02  0.14223752531E+03  0.12509000000E+03 0.  0.
         25    1    1    2    0    0  0.26684362446E+02  0.96632106218E+01  0.10117664062E+02  0.12866743203E+03  0.12509000000E+03 0.  0.
<mgrwt>
<rscale>  2 0.39660684E+03</rscale>
<asrwt>0</asrwt>
<pdfrwt beam="1">  1       21 0.25878115E-01 0.39660684E+03</pdfrwt>
<pdfrwt beam="2">  1       21 0.32863208E-01 0.39660684E+03</pdfrwt>
<totfact> 0.11953089E+05</totfact>
</mgrwt>
</event>
<event>
 6    0  0.1539497E-004  0.4399515E+03  0.7546771E-02  0.1030762E+00
         21   -1    0    0  502  501  0.00000000000E+00  0.00000000000E+00  0.14616144861E+03  0.14616144861E+03  0.00000000000E+00 0.  1.
         21   -1    0    0  501  502 -0.00000000000E+00 -0.00000000000E+00 -0.33106766519E+03  0.33106766519E+03  0.00000000000E+00 0.  1.
      99925    2    1    2    0    0  0.19400619936E+02 -0.23015738973E+02 -0.21995676998E+03  0.34387935682E+03  0.26261363844E+03 0.  0.
         25    1    1    2    0    0 -0.19400619936E+02  0.23015738973E+02  0.35050553392E+02  0.13334975698E+03  0.12509000000E+03 0.  0.
         25    1    3    3    0    0 -0.45173275051E+01 -0.33135371110E+02 -0.15023880046E+03  0.19833699688E+03  0.12509000000E+03 0.  0.
         25    1    3    3    0    0  0.23917947441E+02  0.10119632138E+02 -0.69717969514E+02  0.14554235994E+03  0.12509000000E+03 0.  0.
<mgrwt>
<rscale>  2 0.43995150E+03</rscale>
<asrwt>0</asrwt>
<pdfrwt beam="1">  1       21 0.21494331E-01 0.43995150E+03</pdfrwt>
<pdfrwt beam="2">  1       21 0.48686420E-01 0.43995150E+03</pdfrwt>
<totfact> 0.75529820E+04</totfact>
</mgrwt>
</event>
<event>
 6    0  0.1539497E-004  0.4754141E+03  0.7546771E-02  0.1020403E+00
         21   -1    0    0  502  501  0.00000000000E+00  0.00000000000E+00  0.19719212964E+04  0.19719212964E+04  0.00000000000E+00 0.  1.
         21   -1    0    0  501  502 -0.00000000000E+00 -0.00000000000E+00 -0.28654615115E+02  0.28654615115E+02  0.00000000000E+00 0.  1.
      99925    2    1    2    0    0 -0.46804678178E+02 -0.82960419599E+02  0.15823924734E+04  0.16069379927E+04  0.26307919598E+03 0.  0.
         25    1    3    3    0    0  0.14287930332E+02 -0.54760763992E+02  0.73192222938E+03  0.74468821945E+03  0.12509000000E+03 0.  0.
         25    1    1    2    0    0  0.46804678178E+02  0.82960419599E+02  0.36087420789E+03  0.39363791883E+03  0.12509000000E+03 0.  0.
         25    1    3    3    0    0 -0.61092608510E+02 -0.28199655607E+02  0.85047024400E+03  0.86224977322E+03  0.12509000000E+03 0.  0.
<mgrwt>
<rscale>  2 0.47541412E+03</rscale>
<asrwt>0</asrwt>
<pdfrwt beam="1">  1       21 0.28998833E+00 0.47541412E+03</pdfrwt>
<pdfrwt beam="2">  1       21 0.42139153E-02 0.47541412E+03</pdfrwt>
<totfact> 0.11728909E+04</totfact>
</mgrwt>
</event>
<event>
 6    0  0.1539497E-004  0.4786584E+03  0.7546771E-02  0.1019505E+00
         21   -1    0    0  502  501  0.00000000000E+00  0.00000000000E+00  0.62882360618E+03  0.62882360618E+03  0.00000000000E+00 0. -1.
         21   -1    0    0  501  502 -0.00000000000E+00 -0.00000000000E+00 -0.91088299975E+02  0.91088299975E+02  0.00000000000E+00 0. -1.
      99925    2    1    2    0    0 -0.12181355693E+03 -0.41136546880E+02  0.38940800629E+03  0.48714753143E+03  0.26295125761E+03 0.  0.
         25    1    1    2    0    0  0.12181355693E+03  0.41136546880E+02  0.14832729992E+03  0.23276437473E+03  0.12509000000E+03 0.  0.
         25    1    3    3    0    0 -0.63913756754E+02 -0.19947520657E+01  0.25258361146E+03  0.28902411010E+03  0.12509000000E+03 0.  0.
         25    1    3    3    0    0 -0.57899800175E+02 -0.39141794815E+02  0.13682439483E+03  0.19812342134E+03  0.12509000000E+03 0.  0.
<mgrwt>
<rscale>  2 0.47865843E+03</rscale>
<asrwt>0</asrwt>
<pdfrwt beam="1">  1       21 0.92474058E-01 0.47865843E+03</pdfrwt>
<pdfrwt beam="2">  1       21 0.13395338E-01 0.47865843E+03</pdfrwt>
<totfact> 0.43211584E+04</totfact>
</mgrwt>
</event>
<event>
 6    0  0.1539497E-004  0.4561813E+03  0.7546771E-02  0.1025895E+00
         21   -1    0    0  502  501  0.00000000000E+00  0.00000000000E+00  0.51034786975E+02  0.51034786975E+02  0.00000000000E+00 0.  1.
         21   -1    0    0  501  502 -0.00000000000E+00 -0.00000000000E+00 -0.10194093069E+04  0.10194093069E+04  0.00000000000E+00 0.  1.
      99925    2    1    2    0    0 -0.86703137190E+02 -0.66198651216E+02 -0.52988686321E+03  0.60159590031E+03  0.26313084966E+03 0.  0.
         25    1    3    3    0    0 -0.40978898935E+02  0.55389482748E+01 -0.28078859721E+03  0.31016075595E+03  0.12509000000E+03 0.  0.
         25    1    3    3    0    0 -0.45724238255E+02 -0.71737599491E+02 -0.24909826600E+03  0.29143514436E+03  0.12509000000E+03 0.  0.
         25    1    1    2    0    0  0.86703137190E+02  0.66198651216E+02 -0.43848765672E+03  0.46884819357E+03  0.12509000000E+03 0.  0.
<mgrwt>
<rscale>  2 0.45618127E+03</rscale>
<asrwt>0</asrwt>
<pdfrwt beam="1">  1       21 0.75051167E-02 0.45618127E+03</pdfrwt>
<pdfrwt beam="2">  1       21 0.14991311E+00 0.45618127E+03</pdfrwt>
<totfact> 0.36201213E+04</totfact>
</mgrwt>
</event>
<event>
 6    0  0.1539497E-004  0.3995997E+03  0.7546771E-02  0.1043918E+00
         21   -1    0    0  502  501  0.00000000000E+00  0.00000000000E+00  0.21936066522E+03  0.21936066522E+03  0.00000000000E+00 0. -1.
         21   -1    0    0  501  502 -0.00000000000E+00 -0.00000000000E+00 -0.18198327572E+03  0.18198327572E+03  0.00000000000E+00 0. -1.
      99925    2    1    2    0    0 -0.26241302077E+02  0.32663634580E+01 -0.10798706689E+02  0.26471407814E+03  0.26316849362E+03 0.  0.
         25    1    3    3    0    0  0.26386892111E+02 -0.80913717794E+01  0.43752696722E-01  0.12809858854E+03  0.12509000000E+03 0.  0.
         25    1    1    2    0    0  0.26241302077E+02 -0.32663634580E+01  0.48176096187E+02  0.13662986280E+03  0.12509000000E+03 0.  0.
         25    1    3    3    0    0 -0.52628194188E+02  0.11357735237E+02 -0.10842459386E+02  0.13661548960E+03  0.12509000000E+03 0.  0.
<mgrwt>
<rscale>  2 0.39959966E+03</rscale>
<asrwt>0</asrwt>
<pdfrwt beam="1">  1       21 0.32258921E-01 0.39959966E+03</pdfrwt>
<pdfrwt beam="2">  1       21 0.26762246E-01 0.39959966E+03</pdfrwt>
<totfact> 0.11611259E+05</totfact>
</mgrwt>
</event>
<event>
 6    0  0.1539497E-004  0.4329470E+03  0.7546771E-02  0.1032933E+00
         21   -1    0    0  502  501  0.00000000000E+00  0.00000000000E+00  0.43874829580E+02  0.43874829580E+02  0.00000000000E+00 0.  1.
         21   -1    0    0  501  502 -0.00000000000E+00 -0.00000000000E+00 -0.10680558777E+04  0.10680558777E+04  0.00000000000E+00 0.  1.
      99925    2    1    2    0    0  0.23171966130E+02 -0.11977663771E+02 -0.43523817684E+03  0.50928519110E+03  0.26317053567E+03 0.  0.
         25    1    3    3    0    0 -0.12231256358E+02 -0.95942962383E+01 -0.15085636527E+03  0.19658790704E+03  0.12509000000E+03 0.  0.
         25    1    3    3    0    0  0.35403222489E+02 -0.23833675329E+01 -0.28438181157E+03  0.31269728406E+03  0.12509000000E+03 0.  0.
         25    1    1    2    0    0 -0.23171966130E+02  0.11977663771E+02 -0.58894287124E+03  0.60264551614E+03  0.12509000000E+03 0.  0.
<mgrwt>
<rscale>  2 0.43294697E+03</rscale>
<asrwt>0</asrwt>
<pdfrwt beam="1">  1       21 0.64521816E-02 0.43294697E+03</pdfrwt>
<pdfrwt beam="2">  1       21 0.15706702E+00 0.43294697E+03</pdfrwt>
<totfact> 0.41820331E+04</totfact>
</mgrwt>
</event>
<event>
 6    0  0.1539497E-004  0.4321608E+03  0.7546771E-02  0.1033180E+00
         21   -1    0    0  502  501  0.00000000000E+00  0.00000000000E+00  0.37508354931E+03  0.37508354931E+03  0.00000000000E+00 0.  1.
         21   -1    0    0  501  502 -0.00000000000E+00 -0.00000000000E+00 -0.12448091817E+03  0.12448091817E+03  0.00000000000E+00 0.  1.
      99925    2    1    2    0    0 -0.12974036150E+02  0.67398903221E+02  0.22871151404E+03  0.35521188912E+03  0.26297450779E+03 0.  0.
         25    1    3    3    0    0  0.17575309853E+02  0.64004660276E+02  0.10195972624E+03  0.17449579344E+03  0.12509000000E+03 0.  0.
         25    1    3    3    0    0 -0.30549346003E+02  0.33942429442E+01  0.12675178781E+03  0.18071609568E+03  0.12509000000E+03 0.  0.
         25    1    1    2    0    0  0.12974036150E+02 -0.67398903221E+02  0.21891117096E+02  0.14435257835E+03  0.12509000000E+03 0.  0.
<mgrwt>
<rscale>  2 0.43216082E+03</rscale>
<asrwt>0</asrwt>
<pdfrwt beam="1">  1       21 0.55159345E-01 0.43216082E+03</pdfrwt>
<pdfrwt beam="2">  1       21 0.18306017E-01 0.43216082E+03</pdfrwt>
<totfact> 0.78608811E+04</totfact>
</mgrwt>
</event>
<event>
 6    0  0.1539497E-004  0.4143329E+03  0.7546771E-02  0.1038927E+00
         21   -1    0    0  502  501  0.00000000000E+00  0.00000000000E+00  0.47159641892E+03  0.47159641892E+03  0.00000000000E+00 0.  1.
         21   -1    0    0  501  502 -0.00000000000E+00 -0.00000000000E+00 -0.91005642761E+02  0.91005642761E+02  0.00000000000E+00 0.  1.
      99925    2    1    2    0    0 -0.58872306403E+02  0.34717129371E+02  0.24716027900E+03  0.36735239278E+03  0.26303678343E+03 0.  0.
         25    1    3    3    0    0 -0.64713477054E+01 -0.16384996609E+02  0.12642747685E+03  0.17872258239E+03  0.12509000000E+03 0.  0.
         25    1    1    2    0    0  0.58872306403E+02 -0.34717129371E+02  0.13343049716E+03  0.19524966890E+03  0.12509000000E+03 0.  0.
         25    1    3    3    0    0 -0.52400958697E+02  0.51102125980E+02  0.12073280215E+03  0.18862981039E+03  0.12509000000E+03 0.  0.
<mgrwt>
<rscale>  2 0.41433289E+03</rscale>
<asrwt>0</asrwt>
<pdfrwt beam="1">  1       21 0.69352413E-01 0.41433289E+03</pdfrwt>
<pdfrwt beam="2">  1       21 0.13383183E-01 0.41433289E+03</pdfrwt>
<totfact> 0.85356754E+04</totfact>
</mgrwt>
</event>
<event>
 6    0  0.1539497E-004  0.3960436E+03  0.7546771E-02  0.1045158E+00
         21   -1    0    0  502  501  0.00000000000E+00  0.00000000000E+00  0.40449786294E+03  0.40449786294E+03  0.00000000000E+00 0. -1.
         21   -1    0    0  501  502 -0.00000000000E+00 -0.00000000000E+00 -0.96941510101E+02  0.96941510101E+02  0.00000000000E+00 0. -1.
      99925    2    1    2    0    0 -0.23467211659E+02  0.23598874518E+02  0.18604379700E+03  0.32389944450E+03  0.26304170552E+03 0.  0.
         25    1    3    3    0    0 -0.11094195293E+02 -0.88865399237E+01  0.48924587765E+02  0.13506729859E+03  0.12509000000E+03 0.  0.
         25    1    1    2    0    0  0.23467211659E+02 -0.23598874518E+02  0.12151255584E+03  0.17753992855E+03  0.12509000000E+03 0.  0.
         25    1    3    3    0    0 -0.12373016365E+02  0.32485414442E+02  0.13711920924E+03  0.18883214591E+03  0.12509000000E+03 0.  0.
<mgrwt>
<rscale>  2 0.39604360E+03</rscale>
<asrwt>0</asrwt>
<pdfrwt beam="1">  1       21 0.59484979E-01 0.39604360E+03</pdfrwt>
<pdfrwt beam="2">  1       21 0.14256105E-01 0.39604360E+03</pdfrwt>
<totfact> 0.10713207E+05</totfact>
</mgrwt>
</event>
<event>
 6    0  0.1539497E-004  0.4105931E+03  0.7546771E-02  0.1040172E+00
         21   -1    0    0  502  501  0.00000000000E+00  0.00000000000E+00  0.52400736266E+02  0.52400736266E+02  0.00000000000E+00 0.  1.
         21   -1    0    0  501  502 -0.00000000000E+00 -0.00000000000E+00 -0.80431464022E+03  0.80431464022E+03  0.00000000000E+00 0.  1.
      99925    2    1    2    0    0  0.39636908152E+02 -0.33000816267E+02 -0.57155527078E+03  0.63124501697E+03  0.26293479329E+03 0.  0.
         25    1    3    3    0    0  0.51409709012E+02  0.88024392268E+01 -0.29049391348E+03  0.32055368191E+03  0.12509000000E+03 0.  0.
         25    1    1    2    0    0 -0.39636908152E+02  0.33000816267E+02 -0.18035863317E+03  0.22547035951E+03  0.12509000000E+03 0.  0.
         25    1    3    3    0    0 -0.11772800860E+02 -0.41803255493E+02 -0.28106135731E+03  0.31069133506E+03  0.12509000000E+03 0.  0.
<mgrwt>
<rscale>  2 0.41059313E+03</rscale>
<asrwt>0</asrwt>
<pdfrwt beam="1">  1       21 0.77059909E-02 0.41059313E+03</pdfrwt>
<pdfrwt beam="2">  1       21 0.11828156E+00 0.41059313E+03</pdfrwt>
<totfact> 0.64978610E+04</totfact>
</mgrwt>
</event>
<event>
 6    0  0.1539497E-004  0.7241874E+03  0.7546771E-02  0.9676740E-01
         21   -1    0    0  502  501  0.00000000000E+00  0.00000000000E+00  0.28071427442E+03  0.28071427442E+03  0.00000000000E+00 0.  1.
         21   -1    0    0  501  502 -0.00000000000E+00 -0.00000000000E+00 -0.46706512989E+03  0.46706512989E+03  0.00000000000E+00 0.  1.
      99925    2    1    2    0    0 -0.17067491423E+03 -0.24053494859E+03 -0.42841388596E+02  0.39673886104E+03  0.26187659583E+03 0.  0.
         25    1    3    3    0    0 -0.84074821753E+02 -0.84781143177E+02  0.81433461233E+01  0.17311914994E+03  0.12509000000E+03 0.  0.
         25    1    1    2    0    0  0.17067491423E+03  0.24053494859E+03 -0.14350946688E+03  0.35104054327E+03  0.12509000000E+03 0.  0.
         25    1    3    3    0    0 -0.86600092475E+02 -0.15575380541E+03 -0.50984734719E+02  0.22361971110E+03  0.12509000000E+03 0.  0.
<mgrwt>
<rscale>  2 0.72418740E+03</rscale>
<asrwt>0</asrwt>
<pdfrwt beam="1">  1       21 0.41281511E-01 0.72418740E+03</pdfrwt>
<pdfrwt beam="2">  1       21 0.68686048E-01 0.72418740E+03</pdfrwt>
<totfact> 0.91434218E+03</totfact>
</mgrwt>
</event>
<event>
 6    0  0.1539497E-004  0.4233178E+03  0.7546771E-02  0.1035992E+00
         21   -1    0    0  502  501  0.00000000000E+00  0.00000000000E+00  0.26691926440E+03  0.26691926440E+03  0.00000000000E+00 0.  1.
         21   -1    0    0  501  502 -0.00000000000E+00 -0.00000000000E+00 -0.16783910081E+03  0.16783910081E+03  0.00000000000E+00 0.  1.
      99925    2    1    2    0    0  0.55686325186E+02 -0.39229922436E+02  0.10981812264E+03  0.29192011580E+03  0.26175824786E+03 0.  0.
         25    1    3    3    0    0  0.63287502585E+02 -0.21222678548E+02  0.39917712413E+02  0.14729780016E+03  0.12509000000E+03 0.  0.
         25    1    1    2    0    0 -0.55686325186E+02  0.39229922436E+02 -0.10737959055E+02  0.14283824940E+03  0.12509000000E+03 0.  0.
         25    1    3    3    0    0 -0.76011773986E+01 -0.18007243888E+02  0.69900410232E+02  0.14462231564E+03  0.12509000000E+03 0.  0.
<mgrwt>
<rscale>  2 0.42331780E+03</rscale>
<asrwt>0</asrwt>
<pdfrwt beam="1">  1       21 0.39252833E-01 0.42331780E+03</pdfrwt>
<pdfrwt beam="2">  1       21 0.24682221E-01 0.42331780E+03</pdfrwt>
<totfact> 0.90940361E+04</totfact>
</mgrwt>
</event>
<event>
 6    0  0.1539497E-004  0.3990580E+03  0.7546771E-02  0.1044106E+00
         21   -1    0    0  502  501  0.00000000000E+00  0.00000000000E+00  0.31523685420E+03  0.31523685420E+03  0.00000000000E+00 0. -1.
         21   -1    0    0  501  502 -0.00000000000E+00 -0.00000000000E+00 -0.12629176620E+03  0.12629176620E+03  0.00000000000E+00 0. -1.
      99925    2    1    2    0    0  0.47954163166E+01 -0.36593200242E+02  0.10031193403E+03  0.28384094681E+03  0.26294703013E+03 0.  0.
         25    1    3    3    0    0 -0.73428205852E+01  0.75661127844E+01  0.16887860259E+02  0.12666440305E+03  0.12509000000E+03 0.  0.
         25    1    3    3    0    0  0.12138236902E+02 -0.44159313026E+02  0.83424073768E+02  0.15717654375E+03  0.12509000000E+03 0.  0.
         25    1    1    2    0    0 -0.47954163166E+01  0.36593200242E+02  0.88633153968E+02  0.15768767360E+03  0.12509000000E+03 0.  0.
<mgrwt>
<rscale>  2 0.39905799E+03</rscale>
<asrwt>0</asrwt>
<pdfrwt beam="1">  1       21 0.46358361E-01 0.39905799E+03</pdfrwt>
<pdfrwt beam="2">  1       21 0.18572319E-01 0.39905799E+03</pdfrwt>
<totfact> 0.11147405E+05</totfact>
</mgrwt>
</event>
<event>
 6    0  0.1539497E-004  0.4155410E+03  0.7546771E-02  0.1038527E+00
         21   -1    0    0  502  501  0.00000000000E+00  0.00000000000E+00  0.13337575350E+04  0.13337575350E+04  0.00000000000E+00 0. -1.
         21   -1    0    0  501  502 -0.00000000000E+00 -0.00000000000E+00 -0.32366131861E+02  0.32366131861E+02  0.00000000000E+00 0. -1.
      99925    2    1    2    0    0  0.44189762605E+02 -0.53720024256E+02  0.88425142616E+03  0.92511137155E+03  0.26285336022E+03 0.  0.
         25    1    3    3    0    0  0.14371892873E+02  0.36197620886E+01  0.50781738369E+03  0.52320708831E+03  0.12509000000E+03 0.  0.
         25    1    3    3    0    0  0.29817869732E+02 -0.57339786344E+02  0.37643404247E+03  0.40190428324E+03  0.12509000000E+03 0.  0.
         25    1    1    2    0    0 -0.44189762605E+02  0.53720024256E+02  0.41713997702E+03  0.44101229536E+03  0.12509000000E+03 0.  0.
<mgrwt>
<rscale>  2 0.41554096E+03</rscale>
<asrwt>0</asrwt>
<pdfrwt beam="1">  1       21 0.19614078E+00 0.41554096E+03</pdfrwt>
<pdfrwt beam="2">  1       21 0.47597262E-02 0.41554096E+03</pdfrwt>
<totfact> 0.37497953E+04</totfact>
</mgrwt>
</event>
<event>
 6    0  0.1539497E-004  0.3885725E+03  0.7546771E-02  0.1047810E+00
         21   -1    0    0  502  501  0.00000000000E+00  0.00000000000E+00  0.63005406449E+02  0.63005406449E+02  0.00000000000E+00 0.  1.
         21   -1    0    0  501  502 -0.00000000000E+00 -0.00000000000E+00 -0.59910973577E+03  0.59910973577E+03  0.00000000000E+00 0.  1.
      99925    2    1    2    0    0 -0.79815926685E+01 -0.44998869136E+01 -0.36141392275E+03  0.44706119306E+03  0.26298237959E+03 0.  0.
         25    1    3    3    0    0 -0.58115415428E+01  0.13345635232E+02 -0.24389245134E+03  0.27448664068E+03  0.12509000000E+03 0.  0.
         25    1    3    3    0    0 -0.21700511257E+01 -0.17845522146E+02 -0.11752147142E+03  0.17257455237E+03  0.12509000000E+03 0.  0.
         25    1    1    2    0    0  0.79815926685E+01  0.44998869136E+01 -0.17469040657E+03  0.21505394916E+03  0.12509000000E+03 0.  0.
<mgrwt>
<rscale>  2 0.38857253E+03</rscale>
<asrwt>0</asrwt>
<pdfrwt beam="1">  1       21 0.92655010E-02 0.38857253E+03</pdfrwt>
<pdfrwt beam="2">  1       21 0.88104372E-01 0.38857253E+03</pdfrwt>
<totfact> 0.96398724E+04</totfact>
</mgrwt>
</event>
<event>
 6    0  0.1539497E-004  0.4401691E+03  0.7546771E-02  0.1030695E+00
         21   -1    0    0  502  501  0.00000000000E+00  0.00000000000E+00  0.13260027467E+03  0.13260027467E+03  0.00000000000E+00 0.  1.
         21   -1    0    0  501  502 -0.00000000000E+00 -0.00000000000E+00 -0.36528741470E+03  0.36528741470E+03  0.00000000000E+00 0.  1.
      99925    2    1    2    0    0 -0.14084363479E+02  0.70851677333E+02 -0.72616020412E+02  0.28227553546E+03  0.26303623709E+03 0.  0.
         25    1    1    2    0    0  0.14084363479E+02 -0.70851677333E+02 -0.16007111962E+03  0.21561215390E+03  0.12509000000E+03 0.  0.
         25    1    3    3    0    0 -0.83220106809E+01 -0.55634582789E+01 -0.42729541221E+02  0.13256519046E+03  0.12509000000E+03 0.  0.
         25    1    3    3    0    0 -0.57623527984E+01  0.76415135612E+02 -0.29886479191E+02  0.14971034500E+03  0.12509000000E+03 0.  0.
<mgrwt>
<rscale>  2 0.44016911E+03</rscale>
<asrwt>0</asrwt>
<pdfrwt beam="1">  1       21 0.19500041E-01 0.44016911E+03</pdfrwt>
<pdfrwt beam="2">  1       21 0.53718736E-01 0.44016911E+03</pdfrwt>
<totfact> 0.73722587E+04</totfact>
</mgrwt>
</event>
<event>
 6    0  0.1539497E-004  0.4305186E+03  0.7546771E-02  0.1033696E+00
         21   -1    0    0  502  501  0.00000000000E+00  0.00000000000E+00  0.19787266059E+03  0.19787266059E+03  0.00000000000E+00 0.  1.
         21   -1    0    0  501  502 -0.00000000000E+00 -0.00000000000E+00 -0.23417361786E+03  0.23417361786E+03  0.00000000000E+00 0.  1.
      99925    2    1    2    0    0  0.57189345354E+02  0.54004103714E+02  0.17301341876E+02  0.27485919561E+03  0.26279493249E+03 0.  0.
         25    1    1    2    0    0 -0.57189345354E+02 -0.54004103714E+02 -0.53602299146E+02  0.15718708285E+03  0.12509000000E+03 0.  0.
         25    1    3    3    0    0  0.62736510783E+02  0.33845154420E+02  0.31067187502E+02  0.14728897617E+03  0.12509000000E+03 0.  0.
         25    1    3    3    0    0 -0.55471654296E+01  0.20158949294E+02 -0.13765845626E+02  0.12757021944E+03  0.12509000000E+03 0.  0.
<mgrwt>
<rscale>  2 0.43051856E+03</rscale>
<asrwt>0</asrwt>
<pdfrwt beam="1">  1       21 0.29098921E-01 0.43051856E+03</pdfrwt>
<pdfrwt beam="2">  1       21 0.34437297E-01 0.43051856E+03</pdfrwt>
<totfact> 0.85842866E+04</totfact>
</mgrwt>
</event>
<event>
 6    0  0.1539497E-004  0.4628294E+03  0.7546771E-02  0.1023964E+00
         21   -1    0    0  502  501  0.00000000000E+00  0.00000000000E+00  0.36188469504E+03  0.36188469504E+03  0.00000000000E+00 0.  1.
         21   -1    0    0  501  502 -0.00000000000E+00 -0.00000000000E+00 -0.14798295138E+03  0.14798295138E+03  0.00000000000E+00 0.  1.
      99925    2    1    2    0    0 -0.75219462165E+02  0.92710827253E+02  0.15043204438E+03  0.32566890645E+03  0.26301553504E+03 0.  0.
         25    1    1    2    0    0  0.75219462165E+02 -0.92710827253E+02  0.63469699288E+02  0.18419873997E+03  0.12509000000E+03 0.  0.
         25    1    3    3    0    0 -0.55154039662E+02  0.15900148998E+02  0.48892494772E+02  0.14605740986E+03  0.12509000000E+03 0.  0.
         25    1    3    3    0    0 -0.20065422502E+02  0.76810678255E+02  0.10153954961E+03  0.17961149659E+03  0.12509000000E+03 0.  0.
<mgrwt>
<rscale>  2 0.46282941E+03</rscale>
<asrwt>0</asrwt>
<pdfrwt beam="1">  1       21 0.53218337E-01 0.46282941E+03</pdfrwt>
<pdfrwt beam="2">  1       21 0.21762199E-01 0.46282941E+03</pdfrwt>
<totfact> 0.60720787E+04</totfact>
</mgrwt>
</event>
<event>
 6    0  0.1539497E-004  0.4782581E+03  0.7546771E-02  0.1019615E+00
         21   -1    0    0  502  501  0.00000000000E+00  0.00000000000E+00  0.15890628717E+03  0.15890628717E+03  0.00000000000E+00 0. -1.
         21   -1    0    0  501  502 -0.00000000000E+00 -0.00000000000E+00 -0.35985174439E+03  0.35985174439E+03  0.00000000000E+00 0. -1.
      99925    2    1    2    0    0 -0.48725521489E+02 -0.15992321804E+02  0.10019667402E+02  0.26819122868E+03  0.26305172610E+03 0.  0.
         25    1    1    2    0    0  0.48725521489E+02  0.15992321804E+02 -0.21096512461E+03  0.25056680288E+03  0.12509000000E+03 0.  0.
         25    1    3    3    0    0 -0.20557085031E+02 -0.87539023103E+01 -0.35501296772E+02  0.13193587353E+03  0.12509000000E+03 0.  0.
         25    1    3    3    0    0 -0.28168436458E+02 -0.72384194938E+01  0.45520964174E+02  0.13625535516E+03  0.12509000000E+03 0.  0.
<mgrwt>
<rscale>  2 0.47825811E+03</rscale>
<asrwt>0</asrwt>
<pdfrwt beam="1">  1       21 0.23368572E-01 0.47825811E+03</pdfrwt>
<pdfrwt beam="2">  1       21 0.52919374E-01 0.47825811E+03</pdfrwt>
<totfact> 0.53410242E+04</totfact>
</mgrwt>
</event>
<event>
 6    0  0.1539497E-004  0.4523543E+03  0.7546771E-02  0.1027022E+00
         21   -1    0    0  502  501  0.00000000000E+00  0.00000000000E+00  0.17037098028E+04  0.17037098028E+04  0.00000000000E+00 0.  1.
         21   -1    0    0  501  502 -0.00000000000E+00 -0.00000000000E+00 -0.30026305063E+02  0.30026305063E+02  0.00000000000E+00 0.  1.
      99925    2    1    2    0    0 -0.44866598070E+02 -0.57998142998E+02  0.13734083519E+04  0.14002852606E+04  0.26300477914E+03 0.  0.
         25    1    3    3    0    0  0.14012854630E+01 -0.40905113191E+02  0.52269822124E+03  0.53901403551E+03  0.12509000000E+03 0.  0.
         25    1    3    3    0    0 -0.46267883533E+02 -0.17093029807E+02  0.85071013066E+03  0.86127122512E+03  0.12509000000E+03 0.  0.
         25    1    1    2    0    0  0.44866598070E+02  0.57998142998E+02  0.30027514584E+03  0.33345084723E+03  0.12509000000E+03 0.  0.
<mgrwt>
<rscale>  2 0.45235433E+03</rscale>
<asrwt>0</asrwt>
<pdfrwt beam="1">  1       21 0.25054549E+00 0.45235433E+03</pdfrwt>
<pdfrwt beam="2">  1       21 0.44156343E-02 0.45235433E+03</pdfrwt>
<totfact> 0.18954511E+04</totfact>
</mgrwt>
</event>
<event>
 6    0  0.1539497E-004  0.4356841E+03  0.7546771E-02  0.1032079E+00
         21   -1    0    0  502  501  0.00000000000E+00  0.00000000000E+00  0.13029911696E+03  0.13029911696E+03  0.00000000000E+00 0. -1.
         21   -1    0    0  501  502 -0.00000000000E+00 -0.00000000000E+00 -0.36420173328E+03  0.36420173328E+03  0.00000000000E+00 0. -1.
      99925    2    1    2    0    0 -0.62599060763E+01  0.79473314136E+02 -0.93630795657E+02  0.29034677642E+03  0.26301963919E+03 0.  0.
         25    1    1    2    0    0  0.62599060763E+01 -0.79473314136E+02 -0.14027182067E+03  0.20415407382E+03  0.12509000000E+03 0.  0.
         25    1    3    3    0    0 -0.38049664928E+02  0.27994611158E+02 -0.64130518379E+02  0.14829601054E+03  0.12509000000E+03 0.  0.
         25    1    3    3    0    0  0.31789758852E+02  0.51478702978E+02 -0.29500277278E+02  0.14205076588E+03  0.12509000000E+03 0.  0.
<mgrwt>
<rscale>  2 0.43568413E+03</rscale>
<asrwt>0</asrwt>
<pdfrwt beam="1">  1       21 0.19161635E-01 0.43568413E+03</pdfrwt>
<pdfrwt beam="2">  1       21 0.53559077E-01 0.43568413E+03</pdfrwt>
<totfact> 0.76770436E+04</totfact>
</mgrwt>
</event>
<event>
 6    0  0.1539497E-004  0.4443739E+03  0.7546771E-02  0.1029413E+00
         21   -1    0    0  502  501  0.00000000000E+00  0.00000000000E+00  0.22863089601E+03  0.22863089601E+03  0.00000000000E+00 0.  1.
         21   -1    0    0  501  502 -0.00000000000E+00 -0.00000000000E+00 -0.21592461370E+03  0.21592461370E+03  0.00000000000E+00 0.  1.
      99925    2    1    2    0    0 -0.92501480623E+02 -0.21259718651E+02 -0.31618193549E+02  0.28139709953E+03  0.26301353179E+03 0.  0.
         25    1    3    3    0    0 -0.79424677868E+02 -0.12507616700E+02  0.89067741487E+01  0.14896831427E+03  0.12509000000E+03 0.  0.
         25    1    3    3    0    0 -0.13076802755E+02 -0.87521019508E+01 -0.40524967698E+02  0.13242878526E+03  0.12509000000E+03 0.  0.
         25    1    1    2    0    0  0.92501480623E+02  0.21259718651E+02  0.44324475859E+02  0.16315841019E+03  0.12509000000E+03 0.  0.
<mgrwt>
<rscale>  2 0.44437389E+03</rscale>
<asrwt>0</asrwt>
<pdfrwt beam="1">  1       21 0.33622191E-01 0.44437389E+03</pdfrwt>
<pdfrwt beam="2">  1       21 0.31753620E-01 0.44437389E+03</pdfrwt>
<totfact> 0.75520592E+04</totfact>
</mgrwt>
</event>
<event>
 6    0  0.1539497E-004  0.4189926E+03  0.7546771E-02  0.1037395E+00
         21   -1    0    0  502  501  0.00000000000E+00  0.00000000000E+00  0.51505059878E+03  0.51505059878E+03  0.00000000000E+00 0.  1.
         21   -1    0    0  501  502 -0.00000000000E+00 -0.00000000000E+00 -0.85212407811E+02  0.85212407811E+02  0.00000000000E+00 0.  1.
      99925    2    1    2    0    0 -0.39037699852E+02 -0.47596302185E+02  0.22031333017E+03  0.34859353012E+03  0.26304017907E+03 0.  0.
         25    1    3    3    0    0 -0.11270539463E+02 -0.26731614292E+02  0.58414421507E+02  0.14107216948E+03  0.12509000000E+03 0.  0.
         25    1    1    2    0    0  0.39037699852E+02  0.47596302185E+02  0.20952486080E+03  0.25166947646E+03  0.12509000000E+03 0.  0.
         25    1    3    3    0    0 -0.27767160390E+02 -0.20864687893E+02  0.16189890866E+03  0.20752136064E+03  0.12509000000E+03 0.  0.
<mgrwt>
<rscale>  2 0.41899261E+03</rscale>
<asrwt>0</asrwt>
<pdfrwt beam="1">  1       21 0.75742734E-01 0.41899261E+03</pdfrwt>
<pdfrwt beam="2">  1       21 0.12531237E-01 0.41899261E+03</pdfrwt>
<totfact> 0.78792635E+04</totfact>
</mgrwt>
</event>
<event>
 6    0  0.1539497E-004  0.4143761E+03  0.7546771E-02  0.1038912E+00
         21   -1    0    0  502  501  0.00000000000E+00  0.00000000000E+00  0.42388908657E+03  0.42388908657E+03  0.00000000000E+00 0.  1.
         21   -1    0    0  501  502 -0.00000000000E+00 -0.00000000000E+00 -0.10126914910E+03  0.10126914910E+03  0.00000000000E+00 0.  1.
      99925    2    1    2    0    0 -0.48652575795E+02 -0.43939315337E+02  0.18687952567E+03  0.32927382061E+03  0.26305808344E+03 0.  0.
         25    1    3    3    0    0 -0.23300814074E+02 -0.48902908486E+01  0.13633288755E+03  0.18655028064E+03  0.12509000000E+03 0.  0.
         25    1    1    2    0    0  0.48652575795E+02  0.43939315337E+02  0.13574041181E+03  0.19588441506E+03  0.12509000000E+03 0.  0.
         25    1    3    3    0    0 -0.25351761721E+02 -0.39049024488E+02  0.50546638120E+02  0.14272353997E+03  0.12509000000E+03 0.  0.
<mgrwt>
<rscale>  2 0.41437610E+03</rscale>
<asrwt>0</asrwt>
<pdfrwt beam="1">  1       21 0.62336629E-01 0.41437610E+03</pdfrwt>
<pdfrwt beam="2">  1       21 0.14892522E-01 0.41437610E+03</pdfrwt>
<totfact> 0.88847999E+04</totfact>
</mgrwt>
</event>
<event>
 6    0  0.1539497E-004  0.4150236E+03  0.7546771E-02  0.1038698E+00
         21   -1    0    0  502  501  0.00000000000E+00  0.00000000000E+00  0.18123867591E+03  0.18123867591E+03  0.00000000000E+00 0. -1.
         21   -1    0    0  501  502 -0.00000000000E+00 -0.00000000000E+00 -0.23759358780E+03  0.23759358780E+03  0.00000000000E+00 0. -1.
      99925    2    1    2    0    0  0.12438876009E+02 -0.14898402231E+02 -0.10409388643E+03  0.28354292260E+03  0.26302920701E+03 0.  0.
         25    1    3    3    0    0 -0.21287638232E+02 -0.34728547363E+02 -0.65214806102E+02  0.14683226682E+03  0.12509000000E+03 0.  0.
         25    1    1    2    0    0 -0.12438876009E+02  0.14898402231E+02  0.47738974540E+02  0.13528934110E+03  0.12509000000E+03 0.  0.
         25    1    3    3    0    0  0.33726514241E+02  0.19830145133E+02 -0.38879080327E+02  0.13671065579E+03  0.12509000000E+03 0.  0.
<mgrwt>
<rscale>  2 0.41502360E+03</rscale>
<asrwt>0</asrwt>
<pdfrwt beam="1">  1       21 0.26652746E-01 0.41502360E+03</pdfrwt>
<pdfrwt beam="2">  1       21 0.34940234E-01 0.41502360E+03</pdfrwt>
<totfact> 0.99392991E+04</totfact>
</mgrwt>
</event>
<event>
 6    0  0.1539497E-004  0.4577699E+03  0.7546771E-02  0.1025430E+00
         21   -1    0    0  502  501  0.00000000000E+00  0.00000000000E+00  0.68246976149E+02  0.68246976149E+02  0.00000000000E+00 0.  1.
         21   -1    0    0  501  502 -0.00000000000E+00 -0.00000000000E+00 -0.76762853757E+03  0.76762853757E+03  0.00000000000E+00 0.  1.
      99925    2    1    2    0    0 -0.91540320364E+02 -0.46718925234E+02 -0.53609851185E+03  0.60593823835E+03  0.26305369425E+03 0.  0.
         25    1    3    3    0    0 -0.16491814398E+02 -0.51597602419E+02 -0.24920920157E+03  0.28405461934E+03  0.12509000000E+03 0.  0.
         25    1    3    3    0    0 -0.75048505966E+02  0.48786771850E+01 -0.28688931027E+03  0.32188361901E+03  0.12509000000E+03 0.  0.
         25    1    1    2    0    0  0.91540320364E+02  0.46718925234E+02 -0.16328304958E+03  0.22993727538E+03  0.12509000000E+03 0.  0.
<mgrwt>
<rscale>  2 0.45776993E+03</rscale>
<asrwt>0</asrwt>
<pdfrwt beam="1">  1       21 0.10036320E-01 0.45776993E+03</pdfrwt>
<pdfrwt beam="2">  1       21 0.11288655E+00 0.45776993E+03</pdfrwt>
<totfact> 0.45090063E+04</totfact>
</mgrwt>
</event>
<event>
 6    0  0.1539497E-004  0.4230046E+03  0.7546771E-02  0.1036093E+00
         21   -1    0    0  502  501  0.00000000000E+00  0.00000000000E+00  0.44736945336E+02  0.44736945336E+02  0.00000000000E+00 0.  1.
         21   -1    0    0  501  502 -0.00000000000E+00 -0.00000000000E+00 -0.99991656968E+03  0.99991656968E+03  0.00000000000E+00 0.  1.
      99925    2    1    2    0    0  0.27808928226E+01 -0.75357863025E+02 -0.55715524783E+03  0.62067538671E+03  0.26292475083E+03 0.  0.
         25    1    3    3    0    0  0.35149660012E+02 -0.14745242978E+02 -0.27143569169E+03  0.30129348418E+03  0.12509000000E+03 0.  0.
         25    1    1    2    0    0 -0.27808928226E+01  0.75357863025E+02 -0.39802437652E+03  0.42397812831E+03  0.12509000000E+03 0.  0.
         25    1    3    3    0    0 -0.32368767190E+02 -0.60612620047E+02 -0.28571955614E+03  0.31938190252E+03  0.12509000000E+03 0.  0.
<mgrwt>
<rscale>  2 0.42300455E+03</rscale>
<asrwt>0</asrwt>
<pdfrwt beam="1">  1       21 0.65789626E-02 0.42300455E+03</pdfrwt>
<pdfrwt beam="2">  1       21 0.14704655E+00 0.42300455E+03</pdfrwt>
<totfact> 0.48501522E+04</totfact>
</mgrwt>
</event>
<event>
 6    0  0.1539497E-004  0.4336755E+03  0.7546771E-02  0.1032705E+00
         21   -1    0    0  502  501  0.00000000000E+00  0.00000000000E+00  0.13729240117E+03  0.13729240117E+03  0.00000000000E+00 0. -1.
         21   -1    0    0  501  502 -0.00000000000E+00 -0.00000000000E+00 -0.34247062626E+03  0.34247062626E+03  0.00000000000E+00 0. -1.
      99925    2    1    2    0    0 -0.86847741241E+02  0.13947969839E+02 -0.16079595862E+03  0.32053247227E+03  0.26296130789E+03 0.  0.
         25    1    3    3    0    0 -0.54956610537E+02 -0.21166799795E+02 -0.50662911992E+02  0.14724979187E+03  0.12509000000E+03 0.  0.
         25    1    3    3    0    0 -0.31891130704E+02  0.35114769634E+02 -0.11013304663E+03  0.17328268039E+03  0.12509000000E+03 0.  0.
         25    1    1    2    0    0  0.86847741241E+02 -0.13947969839E+02 -0.44382266471E+02  0.15923055517E+03  0.12509000000E+03 0.  0.
<mgrwt>
<rscale>  2 0.43367552E+03</rscale>
<asrwt>0</asrwt>
<pdfrwt beam="1">  1       21 0.20190059E-01 0.43367552E+03</pdfrwt>
<pdfrwt beam="2">  1       21 0.50363327E-01 0.43367552E+03</pdfrwt>
<totfact> 0.79317834E+04</totfact>
</mgrwt>
</event>
<event>
 6    0  0.1539497E-004  0.4261724E+03  0.7546771E-02  0.1035076E+00
         21   -1    0    0  502  501  0.00000000000E+00  0.00000000000E+00  0.16414669162E+03  0.16414669162E+03  0.00000000000E+00 0.  1.
         21   -1    0    0  501  502 -0.00000000000E+00 -0.00000000000E+00 -0.27661682304E+03  0.27661682304E+03  0.00000000000E+00 0.  1.
      99925    2    1    2    0    0 -0.55956570148E+01  0.83892635190E+02 -0.75604965309E+02  0.28559962005E+03  0.26226274340E+03 0.  0.
         25    1    3    3    0    0  0.12096740034E+01  0.35290002386E+01 -0.20092981453E+02  0.12674838523E+03  0.12509000000E+03 0.  0.
         25    1    1    2    0    0  0.55956570148E+01 -0.83892635190E+02 -0.36865166110E+02  0.15516389460E+03  0.12509000000E+03 0.  0.
         25    1    3    3    0    0 -0.68053310182E+01  0.80363634952E+02 -0.55511983857E+02  0.15885123482E+03  0.12509000000E+03 0.  0.
<mgrwt>
<rscale>  2 0.42617244E+03</rscale>
<asrwt>0</asrwt>
<pdfrwt beam="1">  1       21 0.24139219E-01 0.42617244E+03</pdfrwt>
<pdfrwt beam="2">  1       21 0.40678944E-01 0.42617244E+03</pdfrwt>
<totfact> 0.88175176E+04</totfact>
</mgrwt>
</event>
<event>
 6    0  0.1539497E-004  0.4173394E+03  0.7546771E-02  0.1037936E+00
         21   -1    0    0  502  501  0.00000000000E+00  0.00000000000E+00  0.35747379902E+03  0.35747379902E+03  0.00000000000E+00 0. -1.
         21   -1    0    0  501  502 -0.00000000000E+00 -0.00000000000E+00 -0.12180764808E+03  0.12180764808E+03  0.00000000000E+00 0. -1.
      99925    2    1    2    0    0 -0.72141930416E+02 -0.69677103831E+01  0.15640734259E+03  0.31441036439E+03  0.26294032271E+03 0.  0.
         25    1    1    2    0    0  0.72141930416E+02  0.69677103831E+01  0.79258808348E+02  0.16487108271E+03  0.12509000000E+03 0.  0.
         25    1    3    3    0    0 -0.39575822064E+02  0.65896272861E+01  0.12358341715E+03  0.18036085488E+03  0.12509000000E+03 0.  0.
         25    1    3    3    0    0 -0.32566108352E+02 -0.13557337669E+02  0.32823925439E+02  0.13404950951E+03  0.12509000000E+03 0.  0.
<mgrwt>
<rscale>  2 0.41733940E+03</rscale>
<asrwt>0</asrwt>
<pdfrwt beam="1">  1       21 0.52569676E-01 0.41733940E+03</pdfrwt>
<pdfrwt beam="2">  1       21 0.17912889E-01 0.41733940E+03</pdfrwt>
<totfact> 0.91077300E+04</totfact>
</mgrwt>
</event>
<event>
 6    0  0.1539497E-004  0.4002082E+03  0.7546771E-02  0.1043708E+00
         21   -1    0    0  502  501  0.00000000000E+00  0.00000000000E+00  0.62442705904E+03  0.62442705904E+03  0.00000000000E+00 0. -1.
         21   -1    0    0  501  502 -0.00000000000E+00 -0.00000000000E+00 -0.64125429178E+02  0.64125429178E+02  0.00000000000E+00 0. -1.
      99925    2    1    2    0    0  0.28191879855E+02 -0.36527477119E+02  0.36540974902E+03  0.45241822135E+03  0.26273356019E+03 0.  0.
         25    1    3    3    0    0  0.22398152546E+02 -0.58022406879E+02  0.19121175106E+03  0.23680734528E+03  0.12509000000E+03 0.  0.
         25    1    1    2    0    0 -0.28191879855E+02  0.36527477119E+02  0.19489188084E+03  0.23613426688E+03  0.12509000000E+03 0.  0.
         25    1    3    3    0    0  0.57937273098E+01  0.21494929760E+02  0.17419799796E+03  0.21561087606E+03  0.12509000000E+03 0.  0.
<mgrwt>
<rscale>  2 0.40020821E+03</rscale>
<asrwt>0</asrwt>
<pdfrwt beam="1">  1       21 0.91827505E-01 0.40020821E+03</pdfrwt>
<pdfrwt beam="2">  1       21 0.94302105E-02 0.40020821E+03</pdfrwt>
<totfact> 0.84493839E+04</totfact>
</mgrwt>
</event>
<event>
 6    0  0.1539497E-004  0.4507985E+03  0.7546771E-02  0.1027484E+00
         21   -1    0    0  502  501  0.00000000000E+00  0.00000000000E+00  0.47362245867E+03  0.47362245867E+03  0.00000000000E+00 0.  1.
         21   -1    0    0  501  502 -0.00000000000E+00 -0.00000000000E+00 -0.10726858508E+03  0.10726858508E+03  0.00000000000E+00 0.  1.
      99925    2    1    2    0    0  0.42332822681E+02  0.95656282464E+02  0.27272877759E+03  0.39286083619E+03  0.26270983658E+03 0.  0.
         25    1    1    2    0    0 -0.42332822681E+02 -0.95656282464E+02  0.93625095997E+02  0.18803020755E+03  0.12509000000E+03 0.  0.
         25    1    3    3    0    0  0.57353356468E+00  0.37297657197E+02  0.83546316392E+02  0.15498044798E+03  0.12509000000E+03 0.  0.
         25    1    3    3    0    0  0.41759289116E+02  0.58358625267E+02  0.18918246120E+03  0.23788038821E+03  0.12509000000E+03 0.  0.
<mgrwt>
<rscale>  2 0.45079845E+03</rscale>
<asrwt>0</asrwt>
<pdfrwt beam="1">  1       21 0.69650361E-01 0.45079845E+03</pdfrwt>
<pdfrwt beam="2">  1       21 0.15774792E-01 0.45079845E+03</pdfrwt>
<totfact> 0.61900713E+04</totfact>
</mgrwt>
</event>
<event>
 6    0  0.1539497E-004  0.4292178E+03  0.7546771E-02  0.1034107E+00
         21   -1    0    0  502  501  0.00000000000E+00  0.00000000000E+00  0.13647687036E+03  0.13647687036E+03  0.00000000000E+00 0.  1.
         21   -1    0    0  501  502 -0.00000000000E+00 -0.00000000000E+00 -0.33747102458E+03  0.33747102458E+03  0.00000000000E+00 0.  1.
      99925    2    1    2    0    0 -0.68883315019E+02 -0.44768456585E-01 -0.18802012859E+03  0.33055770513E+03  0.26300554095E+03 0.  0.
         25    1    3    3    0    0  0.10128753968E+01 -0.47705397635E+01 -0.11349197990E+03  0.16897254679E+03  0.12509000000E+03 0.  0.
         25    1    1    2    0    0  0.68883315019E+02  0.44768456585E-01 -0.12974025628E+02  0.14339018981E+03  0.12509000000E+03 0.  0.
         25    1    3    3    0    0 -0.69896190416E+02  0.47257713069E+01 -0.74528148689E+02  0.16158515834E+03  0.12509000000E+03 0.  0.
<mgrwt>
<rscale>  2 0.42921784E+03</rscale>
<asrwt>0</asrwt>
<pdfrwt beam="1">  1       21 0.20070128E-01 0.42921784E+03</pdfrwt>
<pdfrwt beam="2">  1       21 0.49628092E-01 0.42921784E+03</pdfrwt>
<totfact> 0.82843962E+04</totfact>
</mgrwt>
</event>
<event>
 6    0  0.1539497E-004  0.4036541E+03  0.7546771E-02  0.1042522E+00
         21   -1    0    0  502  501  0.00000000000E+00  0.00000000000E+00  0.54362797346E+03  0.54362797346E+03  0.00000000000E+00 0.  1.
         21   -1    0    0  501  502 -0.00000000000E+00 -0.00000000000E+00 -0.74930197771E+02  0.74930197771E+02  0.00000000000E+00 0.  1.
      99925    2    1    2    0    0 -0.96188922311E+01 -0.24478890569E+02  0.38028515002E+03  0.46313603751E+03  0.26303318184E+03 0.  0.
         25    1    3    3    0    0 -0.19420852949E+02 -0.38623089562E+02  0.24235077315E+03  0.27613460110E+03  0.12509000000E+03 0.  0.
         25    1    1    2    0    0  0.96188922311E+01  0.24478890569E+02  0.88412625668E+02  0.15542213372E+03  0.12509000000E+03 0.  0.
         25    1    3    3    0    0  0.98019607176E+01  0.14144198994E+02  0.13793437687E+03  0.18700143641E+03  0.12509000000E+03 0.  0.
<mgrwt>
<rscale>  2 0.40365407E+03</rscale>
<asrwt>0</asrwt>
<pdfrwt beam="1">  1       21 0.79945288E-01 0.40365407E+03</pdfrwt>
<pdfrwt beam="2">  1       21 0.11019147E-01 0.40365407E+03</pdfrwt>
<totfact> 0.88225259E+04</totfact>
</mgrwt>
</event>
<event>
 6    0  0.1539497E-004  0.4228137E+03  0.7546771E-02  0.1036154E+00
         21   -1    0    0  502  501  0.00000000000E+00  0.00000000000E+00  0.23629256924E+02  0.23629256924E+02  0.00000000000E+00 0. -1.
         21   -1    0    0  501  502 -0.00000000000E+00 -0.00000000000E+00 -0.18914202356E+04  0.18914202356E+04  0.00000000000E+00 0. -1.
      99925    2    1    2    0    0 -0.35616383711E+01  0.64271401557E+02 -0.14215746615E+04  0.14471819812E+04  0.26328249125E+03 0.  0.
         25    1    3    3    0    0  0.24676366854E+02  0.50952420244E+02 -0.86794891953E+03  0.87874223025E+03  0.12509000000E+03 0.  0.
         25    1    3    3    0    0 -0.28238005225E+02  0.13318981313E+02 -0.55362574200E+03  0.56843975099E+03  0.12509000000E+03 0.  0.
         25    1    1    2    0    0  0.35616383711E+01 -0.64271401557E+02 -0.44621631712E+03  0.46786751125E+03  0.12509000000E+03 0.  0.
<mgrwt>
<rscale>  2 0.42281369E+03</rscale>
<asrwt>0</asrwt>
<pdfrwt beam="1">  1       21 0.34748910E-02 0.42281369E+03</pdfrwt>
<pdfrwt beam="2">  1       21 0.27815002E+00 0.42281369E+03</pdfrwt>
<totfact> 0.19606352E+04</totfact>
</mgrwt>
</event>
<event>
 6    0  0.1539497E-004  0.4291639E+03  0.7546771E-02  0.1034124E+00
         21   -1    0    0  502  501  0.00000000000E+00  0.00000000000E+00  0.66303865625E+03  0.66303865625E+03  0.00000000000E+00 0. -1.
         21   -1    0    0  501  502 -0.00000000000E+00 -0.00000000000E+00 -0.69446042582E+02  0.69446042582E+02  0.00000000000E+00 0. -1.
      99925    2    1    2    0    0 -0.68140542185E+02 -0.35183801495E+02  0.31424708826E+03  0.41694949629E+03  0.26308670928E+03 0.  0.
         25    1    1    2    0    0  0.68140542185E+02  0.35183801495E+02  0.27934552540E+03  0.31553520254E+03  0.12509000000E+03 0.  0.
         25    1    3    3    0    0 -0.74784026140E+02 -0.18794081237E+02  0.15348838738E+03  0.21249014381E+03  0.12509000000E+03 0.  0.
         25    1    3    3    0    0  0.66434839548E+01 -0.16389720258E+02  0.16075870088E+03  0.20445935249E+03  0.12509000000E+03 0.  0.
<mgrwt>
<rscale>  2 0.42916389E+03</rscale>
<asrwt>0</asrwt>
<pdfrwt beam="1">  1       21 0.97505681E-01 0.42916389E+03</pdfrwt>
<pdfrwt beam="2">  1       21 0.10212654E-01 0.42916389E+03</pdfrwt>
<totfact> 0.63037206E+04</totfact>
</mgrwt>
</event>
<event>
 6    0  0.1539497E-004  0.4791354E+03  0.7546771E-02  0.1019373E+00
         21   -1    0    0  502  501  0.00000000000E+00  0.00000000000E+00  0.70664201778E+02  0.70664201778E+02  0.00000000000E+00 0. -1.
         21   -1    0    0  501  502 -0.00000000000E+00 -0.00000000000E+00 -0.81218904578E+03  0.81218904578E+03  0.00000000000E+00 0. -1.
      99925    2    1    2    0    0  0.50682772658E+02  0.78600470618E+02 -0.63539733836E+03  0.69402175394E+03  0.26303923648E+03 0.  0.
         25    1    3    3    0    0 -0.10834590996E+02  0.33116897997E+02 -0.34673660748E+03  0.37025383234E+03  0.12509000000E+03 0.  0.
         25    1    1    2    0    0 -0.50682772658E+02 -0.78600470618E+02 -0.10612750564E+03  0.18883149361E+03  0.12509000000E+03 0.  0.
         25    1    3    3    0    0  0.61517363653E+02  0.45483572621E+02 -0.28866073088E+03  0.32376792161E+03  0.12509000000E+03 0.  0.
<mgrwt>
<rscale>  2 0.47913543E+03</rscale>
<asrwt>0</asrwt>
<pdfrwt beam="1">  1       21 0.10391794E-01 0.47913543E+03</pdfrwt>
<pdfrwt beam="2">  1       21 0.11943957E+00 0.47913543E+03</pdfrwt>
<totfact> 0.36565860E+04</totfact>
</mgrwt>
</event>
<event>
 6    0  0.1539497E-004  0.5079054E+03  0.7546771E-02  0.1011736E+00
         21   -1    0    0  502  501  0.00000000000E+00  0.00000000000E+00  0.23877742267E+03  0.23877742267E+03  0.00000000000E+00 0. -1.
         21   -1    0    0  501  502 -0.00000000000E+00 -0.00000000000E+00 -0.27009247539E+03  0.27009247539E+03  0.00000000000E+00 0. -1.
      99925    2    1    2    0    0  0.61032450335E+02 -0.12901500861E+03 -0.85969179178E+02  0.31137454602E+03  0.26304671771E+03 0.  0.
         25    1    1    2    0    0 -0.61032450335E+02  0.12901500861E+03  0.54654126460E+02  0.19749535205E+03  0.12509000000E+03 0.  0.
         25    1    3    3    0    0  0.57941194560E+02 -0.40469771303E+02 -0.22325730037E+02  0.14539921161E+03  0.12509000000E+03 0.  0.
         25    1    3    3    0    0  0.30912557750E+01 -0.88545237306E+02 -0.63643449141E+02  0.16597533440E+03  0.12509000000E+03 0.  0.
<mgrwt>
<rscale>  2 0.50790544E+03</rscale>
<asrwt>0</asrwt>
<pdfrwt beam="1">  1       21 0.35114327E-01 0.50790544E+03</pdfrwt>
<pdfrwt beam="2">  1       21 0.39719482E-01 0.50790544E+03</pdfrwt>
<totfact> 0.43363288E+04</totfact>
</mgrwt>
</event>
<event>
 6    0  0.1539497E-004  0.3905429E+03  0.7546771E-02  0.1047104E+00
         21   -1    0    0  502  501  0.00000000000E+00  0.00000000000E+00  0.71800348723E+03  0.71800348723E+03  0.00000000000E+00 0. -1.
         21   -1    0    0  501  502 -0.00000000000E+00 -0.00000000000E+00 -0.53106910626E+02  0.53106910626E+02  0.00000000000E+00 0. -1.
      99925    2    1    2    0    0 -0.60746822770E+01 -0.14556505592E+02  0.47458355988E+03  0.54282253998E+03  0.26301703553E+03 0.  0.
         25    1    1    2    0    0  0.60746822770E+01  0.14556505592E+02  0.19031301672E+03  0.22828785788E+03  0.12509000000E+03 0.  0.
         25    1    3    3    0    0  0.14565383654E+02  0.28651406647E+02  0.21814393019E+03  0.25351003113E+03  0.12509000000E+03 0.  0.
         25    1    3    3    0    0 -0.20640065931E+02 -0.43207912239E+02  0.25643962969E+03  0.28931250885E+03  0.12509000000E+03 0.  0.
<mgrwt>
<rscale>  2 0.39054294E+03</rscale>
<asrwt>0</asrwt>
<pdfrwt beam="1">  1       21 0.10558874E+00 0.39054294E+03</pdfrwt>
<pdfrwt beam="2">  1       21 0.78098402E-02 0.39054294E+03</pdfrwt>
<totfact> 0.84512344E+04</totfact>
</mgrwt>
</event>
<event>
 6    0  0.1539497E-004  0.4128540E+03  0.7546771E-02  0.1039418E+00
         21   -1    0    0  502  501  0.00000000000E+00  0.00000000000E+00  0.10050462657E+04  0.10050462657E+04  0.00000000000E+00 0. -1.
         21   -1    0    0  501  502 -0.00000000000E+00 -0.00000000000E+00 -0.42398147538E+02  0.42398147538E+02  0.00000000000E+00 0. -1.
      99925    2    1    2    0    0 -0.53539540183E+02 -0.72334721678E+01  0.53501763735E+03  0.59863026272E+03  0.26305040143E+03 0.  0.
         25    1    3    3    0    0 -0.33021188321E+02  0.42232042770E+01  0.35738837315E+03  0.38010813158E+03  0.12509000000E+03 0.  0.
         25    1    1    2    0    0  0.53539540183E+02  0.72334721678E+01  0.42763048080E+03  0.44881415051E+03  0.12509000000E+03 0.  0.
         25    1    3    3    0    0 -0.20518351862E+02 -0.11456676445E+02  0.17762926420E+03  0.21852213114E+03  0.12509000000E+03 0.  0.
<mgrwt>
<rscale>  2 0.41285397E+03</rscale>
<asrwt>0</asrwt>
<pdfrwt beam="1">  1       21 0.14780091E+00 0.41285397E+03</pdfrwt>
<pdfrwt beam="2">  1       21 0.62350224E-02 0.41285397E+03</pdfrwt>
<totfact> 0.52683705E+04</totfact>
</mgrwt>
</event>
<event>
 6    0  0.1539497E-004  0.4735788E+03  0.7546771E-02  0.1020915E+00
         21   -1    0    0  502  501  0.00000000000E+00  0.00000000000E+00  0.71335969566E+02  0.71335969566E+02  0.00000000000E+00 0.  1.
         21   -1    0    0  501  502 -0.00000000000E+00 -0.00000000000E+00 -0.78598816842E+03  0.78598816842E+03  0.00000000000E+00 0.  1.
      99925    2    1    2    0    0  0.48887880779E+02  0.21137943295E+02 -0.22807069899E+03  0.35210547083E+03  0.26291668132E+03 0.  0.
         25    1    3    3    0    0  0.60516367821E+02  0.17661957299E+02 -0.96142738650E+02  0.16989735079E+03  0.12509000000E+03 0.  0.
         25    1    3    3    0    0 -0.11628487042E+02  0.34759859964E+01 -0.13192796034E+03  0.18220812004E+03  0.12509000000E+03 0.  0.
         25    1    1    2    0    0 -0.48887880779E+02 -0.21137943295E+02 -0.48658149986E+03  0.50521866716E+03  0.12509000000E+03 0.  0.
<mgrwt>
<rscale>  2 0.47357883E+03</rscale>
<asrwt>0</asrwt>
<pdfrwt beam="1">  1       21 0.10490584E-01 0.47357883E+03</pdfrwt>
<pdfrwt beam="2">  1       21 0.11558650E+00 0.47357883E+03</pdfrwt>
<totfact> 0.39096476E+04</totfact>
</mgrwt>
</event>
<event>
 6    0  0.1539497E-004  0.4040842E+03  0.7546771E-02  0.1042375E+00
         21   -1    0    0  502  501  0.00000000000E+00  0.00000000000E+00  0.11261803047E+04  0.11261803047E+04  0.00000000000E+00 0. -1.
         21   -1    0    0  501  502 -0.00000000000E+00 -0.00000000000E+00 -0.36247312425E+02  0.36247312425E+02  0.00000000000E+00 0. -1.
      99925    2    1    2    0    0 -0.24190926781E+02  0.26427894817E+02  0.83556501311E+03  0.87671060418E+03  0.26299991975E+03 0.  0.
         25    1    3    3    0    0  0.16415257811E+02  0.15582153820E+02  0.31508099100E+03  0.33975844830E+03  0.12509000000E+03 0.  0.
         25    1    1    2    0    0  0.24190926781E+02 -0.26427894817E+02  0.25436797918E+03  0.28571701296E+03  0.12509000000E+03 0.  0.
         25    1    3    3    0    0 -0.40606184593E+02  0.10845740997E+02  0.52048402211E+03  0.53695215587E+03  0.12509000000E+03 0.  0.
<mgrwt>
<rscale>  2 0.40408420E+03</rscale>
<asrwt>0</asrwt>
<pdfrwt beam="1">  1       21 0.16561473E+00 0.40408420E+03</pdfrwt>
<pdfrwt beam="2">  1       21 0.53304879E-02 0.40408420E+03</pdfrwt>
<totfact> 0.50686692E+04</totfact>
</mgrwt>
</event>
<event>
 6    0  0.1539497E-004  0.3964753E+03  0.7546771E-02  0.1045007E+00
         21   -1    0    0  502  501  0.00000000000E+00  0.00000000000E+00  0.10041622757E+03  0.10041622757E+03  0.00000000000E+00 0.  1.
         21   -1    0    0  501  502 -0.00000000000E+00 -0.00000000000E+00 -0.39135268636E+03  0.39135268636E+03  0.00000000000E+00 0.  1.
      99925    2    1    2    0    0  0.19237847878E+02 -0.15984648310E+02 -0.22940138133E+03  0.35013672256E+03  0.26333462924E+03 0.  0.
         25    1    3    3    0    0  0.17980334731E+02 -0.54057480445E+01 -0.16824362303E+03  0.21048976065E+03  0.12509000000E+03 0.  0.
         25    1    3    3    0    0  0.12575131465E+01 -0.10578900266E+02 -0.61157758300E+02  0.13964696191E+03  0.12509000000E+03 0.  0.
         25    1    1    2    0    0 -0.19237847878E+02  0.15984648310E+02 -0.61535077455E+02  0.14163219136E+03  0.12509000000E+03 0.  0.
<mgrwt>
<rscale>  2 0.39647527E+03</rscale>
<asrwt>0</asrwt>
<pdfrwt beam="1">  1       21 0.14767092E-01 0.39647527E+03</pdfrwt>
<pdfrwt beam="2">  1       21 0.57551865E-01 0.39647527E+03</pdfrwt>
<totfact> 0.10786576E+05</totfact>
</mgrwt>
</event>
<event>
 6    0  0.1539497E-004  0.4220107E+03  0.7546771E-02  0.1036414E+00
         21   -1    0    0  502  501  0.00000000000E+00  0.00000000000E+00  0.70873445885E+02  0.70873445885E+02  0.00000000000E+00 0.  1.
         21   -1    0    0  501  502 -0.00000000000E+00 -0.00000000000E+00 -0.62820776136E+03  0.62820776136E+03  0.00000000000E+00 0.  1.
      99925    2    1    2    0    0 -0.66065990218E+02 -0.37226681602E+02 -0.33011710892E+03  0.42884851503E+03  0.26302699929E+03 0.  0.
         25    1    1    2    0    0  0.66065990218E+02  0.37226681602E+02 -0.22721720655E+03  0.27023269221E+03  0.12509000000E+03 0.  0.
         25    1    3    3    0    0 -0.16585238595E+02 -0.52967916293E+02 -0.14386008522E+03  0.19855453285E+03  0.12509000000E+03 0.  0.
         25    1    3    3    0    0 -0.49480751623E+02  0.15741234691E+02 -0.18625702370E+03  0.23029398218E+03  0.12509000000E+03 0.  0.
<mgrwt>
<rscale>  2 0.42201066E+03</rscale>
<asrwt>0</asrwt>
<pdfrwt beam="1">  1       21 0.10422566E-01 0.42201066E+03</pdfrwt>
<pdfrwt beam="2">  1       21 0.92383488E-01 0.42201066E+03</pdfrwt>
<totfact> 0.69257140E+04</totfact>
</mgrwt>
</event>
<event>
 6    0  0.1539497E-004  0.4010443E+03  0.7546771E-02  0.1043419E+00
         21   -1    0    0  502  501  0.00000000000E+00  0.00000000000E+00  0.26207947569E+03  0.26207947569E+03  0.00000000000E+00 0.  1.
         21   -1    0    0  501  502 -0.00000000000E+00 -0.00000000000E+00 -0.15342341871E+03  0.15342341871E+03  0.00000000000E+00 0.  1.
      99925    2    1    2    0    0 -0.17517530840E+02  0.17029497201E+02  0.11532180572E+03  0.28787527996E+03  0.26263318579E+03 0.  0.
         25    1    1    2    0    0  0.17517530840E+02 -0.17029497201E+02 -0.66657487409E+01  0.12762761444E+03  0.12509000000E+03 0.  0.
         25    1    3    3    0    0 -0.46409307464E+02  0.15597021119E+02  0.46153199977E+02  0.14203773039E+03  0.12509000000E+03 0.  0.
         25    1    3    3    0    0  0.28891776624E+02  0.14324760819E+01  0.69168605743E+02  0.14583754957E+03  0.12509000000E+03 0.  0.
<mgrwt>
<rscale>  2 0.40104428E+03</rscale>
<asrwt>0</asrwt>
<pdfrwt beam="1">  1       21 0.38541099E-01 0.40104428E+03</pdfrwt>
<pdfrwt beam="2">  1       21 0.22562267E-01 0.40104428E+03</pdfrwt>
<totfact> 0.11278887E+05</totfact>
</mgrwt>
</event>
<event>
 6    0  0.1539497E-004  0.4151410E+03  0.7546771E-02  0.1038659E+00
         21   -1    0    0  502  501  0.00000000000E+00  0.00000000000E+00  0.97803406420E+02  0.97803406420E+02  0.00000000000E+00 0. -1.
         21   -1    0    0  501  502 -0.00000000000E+00 -0.00000000000E+00 -0.44053180342E+03  0.44053180342E+03  0.00000000000E+00 0. -1.
      99925    2    1    2    0    0  0.22751640840E+01 -0.56150769524E+02 -0.27756862808E+03  0.38650837139E+03  0.26303287355E+03 0.  0.
         25    1    3    3    0    0  0.23527862385E+02  0.64739478332E+01 -0.12888308222E+03  0.18125625311E+03  0.12509000000E+03 0.  0.
         25    1    3    3    0    0 -0.21252698301E+02 -0.62624717358E+02 -0.14868554586E+03  0.20525211828E+03  0.12509000000E+03 0.  0.
         25    1    1    2    0    0 -0.22751640840E+01  0.56150769524E+02 -0.65159768923E+02  0.15182683846E+03  0.12509000000E+03 0.  0.
<mgrwt>
<rscale>  2 0.41514099E+03</rscale>
<asrwt>0</asrwt>
<pdfrwt beam="1">  1       21 0.14382854E-01 0.41514099E+03</pdfrwt>
<pdfrwt beam="2">  1       21 0.64784089E-01 0.41514099E+03</pdfrwt>
<totfact> 0.87012067E+04</totfact>
</mgrwt>
</event>
<event>
 6    0  0.1539497E-004  0.4639291E+03  0.7546771E-02  0.1023648E+00
         21   -1    0    0  502  501  0.00000000000E+00  0.00000000000E+00  0.27309962052E+03  0.27309962052E+03  0.00000000000E+00 0.  1.
         21   -1    0    0  501  502 -0.00000000000E+00 -0.00000000000E+00 -0.19702538011E+03  0.19702538011E+03  0.00000000000E+00 0.  1.
      99925    2    1    2    0    0  0.71590866659E+02 -0.64933202313E+02 -0.26851516333E+02  0.28149098341E+03  0.26301064021E+03 0.  0.
         25    1    1    2    0    0 -0.71590866659E+02  0.64933202313E+02  0.10292575675E+03  0.18863401722E+03  0.12509000000E+03 0.  0.
         25    1    3    3    0    0  0.54017493940E+02 -0.59127224419E+02  0.12504509951E+02  0.14905632891E+03  0.12509000000E+03 0.  0.
         25    1    3    3    0    0  0.17573372719E+02 -0.58059778940E+01 -0.39356026284E+02  0.13243465450E+03  0.12509000000E+03 0.  0.
<mgrwt>
<rscale>  2 0.46392912E+03</rscale>
<asrwt>0</asrwt>
<pdfrwt beam="1">  1       21 0.40161709E-01 0.46392912E+03</pdfrwt>
<pdfrwt beam="2">  1       21 0.28974320E-01 0.46392912E+03</pdfrwt>
<totfact> 0.62850318E+04</totfact>
</mgrwt>
</event>
<event>
 6    0  0.1539497E-004  0.4222232E+03  0.7546771E-02  0.1036345E+00
         21   -1    0    0  502  501  0.00000000000E+00  0.00000000000E+00  0.18300667692E+03  0.18300667692E+03  0.00000000000E+00 0.  1.
         21   -1    0    0  501  502 -0.00000000000E+00 -0.00000000000E+00 -0.24353263163E+03  0.24353263163E+03  0.00000000000E+00 0.  1.
      99925    2    1    2    0    0  0.66115628016E+02  0.42317683969E+02 -0.35495258736E+02  0.27675243835E+03  0.26300177964E+03 0.  0.
         25    1    3    3    0    0 -0.48207964512E+01  0.36999083693E+02 -0.14885661234E+02  0.13138212695E+03  0.12509000000E+03 0.  0.
         25    1    1    2    0    0 -0.66115628016E+02 -0.42317683969E+02 -0.25030695978E+02  0.14978687020E+03  0.12509000000E+03 0.  0.
         25    1    3    3    0    0  0.70936424468E+02  0.53186002758E+01 -0.20609597501E+02  0.14537031139E+03  0.12509000000E+03 0.  0.
<mgrwt>
<rscale>  2 0.42222315E+03</rscale>
<asrwt>0</asrwt>
<pdfrwt beam="1">  1       21 0.26912747E-01 0.42222315E+03</pdfrwt>
<pdfrwt beam="2">  1       21 0.35813622E-01 0.42222315E+03</pdfrwt>
<totfact> 0.92637598E+04</totfact>
</mgrwt>
</event>
<event>
 6    0  0.1539497E-004  0.5206514E+03  0.7546771E-02  0.1008525E+00
         21   -1    0    0  502  501  0.00000000000E+00  0.00000000000E+00  0.54350748179E+02  0.54350748179E+02  0.00000000000E+00 0.  1.
         21   -1    0    0  501  502 -0.00000000000E+00 -0.00000000000E+00 -0.12468913977E+04  0.12468913977E+04  0.00000000000E+00 0.  1.
      99925    2    1    2    0    0  0.15591316225E+03  0.60717044764E+02 -0.71746617765E+03  0.78226359564E+03  0.26302688703E+03 0.  0.
         25    1    3    3    0    0  0.11798716896E+03  0.14968008971E+02 -0.37297507670E+03  0.41097801555E+03  0.12509000000E+03 0.  0.
         25    1    3    3    0    0  0.37925993290E+02  0.45749035794E+02 -0.34449110095E+03  0.37128558009E+03  0.12509000000E+03 0.  0.
         25    1    1    2    0    0 -0.15591316225E+03 -0.60717044764E+02 -0.47507447190E+03  0.51897855027E+03  0.12509000000E+03 0.  0.
<mgrwt>
<rscale>  2 0.52065144E+03</rscale>
<asrwt>0</asrwt>
<pdfrwt beam="1">  1       21 0.79927570E-02 0.52065144E+03</pdfrwt>
<pdfrwt beam="2">  1       21 0.18336638E+00 0.52065144E+03</pdfrwt>
<totfact> 0.17986027E+04</totfact>
</mgrwt>
</event>
<event>
 6    0  0.1539497E-004  0.4633778E+03  0.7546771E-02  0.1023806E+00
         21   -1    0    0  502  501  0.00000000000E+00  0.00000000000E+00  0.40874112705E+03  0.40874112705E+03  0.00000000000E+00 0. -1.
         21   -1    0    0  501  502 -0.00000000000E+00 -0.00000000000E+00 -0.13132943071E+03  0.13132943071E+03  0.00000000000E+00 0. -1.
      99925    2    1    2    0    0  0.85088912793E+02  0.80103365438E+02  0.13695329231E+03  0.31863717366E+03  0.26290068834E+03 0.  0.
         25    1    3    3    0    0  0.32952138402E+02 -0.17148749580E+01  0.63935873964E+02  0.14430553801E+03  0.12509000000E+03 0.  0.
         25    1    1    2    0    0 -0.85088912793E+02 -0.80103365438E+02  0.14045840403E+03  0.22143338411E+03  0.12509000000E+03 0.  0.
         25    1    3    3    0    0  0.52136774391E+02  0.81818240396E+02  0.73017418341E+02  0.17433163564E+03  0.12509000000E+03 0.  0.
<mgrwt>
<rscale>  2 0.46337777E+03</rscale>
<asrwt>0</asrwt>
<pdfrwt beam="1">  1       21 0.60108989E-01 0.46337777E+03</pdfrwt>
<pdfrwt beam="2">  1       21 0.19313152E-01 0.46337777E+03</pdfrwt>
<totfact> 0.58545213E+04</totfact>
</mgrwt>
</event>
<event>
 6    0  0.1539497E-004  0.4403564E+03  0.7546771E-02  0.1030638E+00
         21   -1    0    0  502  501  0.00000000000E+00  0.00000000000E+00  0.65157812284E+03  0.65157812284E+03  0.00000000000E+00 0.  1.
         21   -1    0    0  501  502 -0.00000000000E+00 -0.00000000000E+00 -0.74401564208E+02  0.74401564208E+02  0.00000000000E+00 0.  1.
      99925    2    1    2    0    0 -0.15751440196E+02  0.28085421910E+02  0.21423487586E+03  0.34073811091E+03  0.26299996084E+03 0.  0.
         25    1    1    2    0    0  0.15751440196E+02 -0.28085421910E+02  0.36294168277E+03  0.38524157614E+03  0.12509000000E+03 0.  0.
         25    1    3    3    0    0  0.12648032515E+02 -0.19227447762E+02  0.11844865220E+03  0.17380235551E+03  0.12509000000E+03 0.  0.
         25    1    3    3    0    0 -0.28399472711E+02  0.47312869672E+02  0.95786223660E+02  0.16693575540E+03  0.12509000000E+03 0.  0.
<mgrwt>
<rscale>  2 0.44035636E+03</rscale>
<asrwt>0</asrwt>
<pdfrwt beam="1">  1       21 0.95820309E-01 0.44035636E+03</pdfrwt>
<pdfrwt beam="2">  1       21 0.10941407E-01 0.44035636E+03</pdfrwt>
<totfact> 0.57900359E+04</totfact>
</mgrwt>
</event>
<event>
 6    0  0.1539497E-004  0.4634899E+03  0.7546771E-02  0.1023774E+00
         21   -1    0    0  502  501  0.00000000000E+00  0.00000000000E+00  0.15146911967E+03  0.15146911967E+03  0.00000000000E+00 0.  1.
         21   -1    0    0  501  502 -0.00000000000E+00 -0.00000000000E+00 -0.35456542137E+03  0.35456542137E+03  0.00000000000E+00 0.  1.
      99925    2    1    2    0    0  0.11262880130E+03  0.19195284721E+02 -0.82696256750E+02  0.29819473551E+03  0.26273127634E+03 0.  0.
         25    1    3    3    0    0  0.78623276165E+02 -0.16974005385E+02 -0.65556066627E+02  0.16252643596E+03  0.12509000000E+03 0.  0.
         25    1    3    3    0    0  0.34005525140E+02  0.36169290106E+02 -0.17140190123E+02  0.13566829956E+03  0.12509000000E+03 0.  0.
         25    1    1    2    0    0 -0.11262880130E+03 -0.19195284721E+02 -0.12040004495E+03  0.20783980553E+03  0.12509000000E+03 0.  0.
<mgrwt>
<rscale>  2 0.46348986E+03</rscale>
<asrwt>0</asrwt>
<pdfrwt beam="1">  1       21 0.22274871E-01 0.46348986E+03</pdfrwt>
<pdfrwt beam="2">  1       21 0.52141973E-01 0.46348986E+03</pdfrwt>
<totfact> 0.60656791E+04</totfact>
</mgrwt>
</event>
<event>
 6    0  0.1539497E-004  0.4000350E+03  0.7546771E-02  0.1043768E+00
         21   -1    0    0  502  501  0.00000000000E+00  0.00000000000E+00  0.33571159738E+03  0.33571159738E+03  0.00000000000E+00 0. -1.
         21   -1    0    0  501  502 -0.00000000000E+00 -0.00000000000E+00 -0.11917073835E+03  0.11917073835E+03  0.00000000000E+00 0. -1.
      99925    2    1    2    0    0 -0.28395557518E+02 -0.20947411853E+02  0.17723938627E+03  0.31909862680E+03  0.26299245584E+03 0.  0.
         25    1    1    2    0    0  0.28395557518E+02  0.20947411853E+02  0.39301472761E+02  0.13578370893E+03  0.12509000000E+03 0.  0.
         25    1    3    3    0    0  0.24706142357E+02 -0.19862719855E+02  0.77514089751E+02  0.15053525607E+03  0.12509000000E+03 0.  0.
         25    1    3    3    0    0 -0.53101699875E+02 -0.10846919983E+01  0.99725296519E+02  0.16856337073E+03  0.12509000000E+03 0.  0.
<mgrwt>
<rscale>  2 0.40003499E+03</rscale>
<asrwt>0</asrwt>
<pdfrwt beam="1">  1       21 0.49369352E-01 0.40003499E+03</pdfrwt>
<pdfrwt beam="2">  1       21 0.17525109E-01 0.40003499E+03</pdfrwt>
<totfact> 0.10885711E+05</totfact>
</mgrwt>
</event>
<event>
 6    0  0.1539497E-004  0.4539510E+03  0.7546771E-02  0.1026550E+00
         21   -1    0    0  502  501  0.00000000000E+00  0.00000000000E+00  0.41157961190E+03  0.41157961190E+03  0.00000000000E+00 0.  1.
         21   -1    0    0  501  502 -0.00000000000E+00 -0.00000000000E+00 -0.12517109015E+03  0.12517109015E+03  0.00000000000E+00 0.  1.
      99925    2    1    2    0    0  0.19495787538E+02 -0.23246465998E+02  0.30809053451E+03  0.40622062241E+03  0.26301127867E+03 0.  0.
         25    1    3    3    0    0 -0.51034645880E+01  0.24468221533E+02  0.16731950451E+03  0.21039977163E+03  0.12509000000E+03 0.  0.
         25    1    3    3    0    0  0.24599252126E+02 -0.47714687531E+02  0.14077103001E+03  0.19582085078E+03  0.12509000000E+03 0.  0.
         25    1    1    2    0    0 -0.19495787538E+02  0.23246465998E+02 -0.21682012764E+02  0.13053007964E+03  0.12509000000E+03 0.  0.
<mgrwt>
<rscale>  2 0.45395096E+03</rscale>
<asrwt>0</asrwt>
<pdfrwt beam="1">  1       21 0.60526413E-01 0.45395096E+03</pdfrwt>
<pdfrwt beam="2">  1       21 0.18407513E-01 0.45395096E+03</pdfrwt>
<totfact> 0.63274331E+04</totfact>
</mgrwt>
</event>
<event>
 6    0  0.1539497E-004  0.4318218E+03  0.7546771E-02  0.1033286E+00
         21   -1    0    0  502  501  0.00000000000E+00  0.00000000000E+00  0.52004622346E+02  0.52004622346E+02  0.00000000000E+00 0. -1.
         21   -1    0    0  501  502 -0.00000000000E+00 -0.00000000000E+00 -0.89641102606E+03  0.89641102606E+03  0.00000000000E+00 0. -1.
      99925    2    1    2    0    0  0.72978512699E+02 -0.46613361131E+02 -0.49534393289E+03  0.56763909268E+03  0.26334361382E+03 0.  0.
         25    1    3    3    0    0  0.16193376821E+02 -0.15823324961E+02 -0.30872219385E+03  0.33387049007E+03  0.12509000000E+03 0.  0.
         25    1    1    2    0    0 -0.72978512699E+02  0.46613361131E+02 -0.34906247082E+03  0.38077655572E+03  0.12509000000E+03 0.  0.
         25    1    3    3    0    0  0.56785135877E+02 -0.30790036169E+02 -0.18662173905E+03  0.23376860262E+03  0.12509000000E+03 0.  0.
<mgrwt>
<rscale>  2 0.43182180E+03</rscale>
<asrwt>0</asrwt>
<pdfrwt beam="1">  1       21 0.76477391E-02 0.43182180E+03</pdfrwt>
<pdfrwt beam="2">  1       21 0.13182514E+00 0.43182180E+03</pdfrwt>
<totfact> 0.49603672E+04</totfact>
</mgrwt>
</event>
<event>
 6    0  0.1539497E-004  0.4275765E+03  0.7546771E-02  0.1034628E+00
         21   -1    0    0  502  501  0.00000000000E+00  0.00000000000E+00  0.16507254317E+03  0.16507254317E+03  0.00000000000E+00 0. -1.
         21   -1    0    0  501  502 -0.00000000000E+00 -0.00000000000E+00 -0.27688081445E+03  0.27688081445E+03  0.00000000000E+00 0. -1.
      99925    2    1    2    0    0  0.48393058589E+02 -0.14517692472E+02 -0.12794191493E+01  0.26754926717E+03  0.26273241508E+03 0.  0.
         25    1    3    3    0    0  0.78470483757E+01  0.26263902883E+02 -0.16151040324E+02  0.12907258797E+03  0.12509000000E+03 0.  0.
         25    1    3    3    0    0  0.40546010213E+02 -0.40781595356E+02  0.14871621175E+02  0.13847667919E+03  0.12509000000E+03 0.  0.
         25    1    1    2    0    0 -0.48393058589E+02  0.14517692472E+02 -0.11052885213E+03  0.17440409046E+03  0.12509000000E+03 0.  0.
<mgrwt>
<rscale>  2 0.42757652E+03</rscale>
<asrwt>0</asrwt>
<pdfrwt beam="1">  1       21 0.24275374E-01 0.42757652E+03</pdfrwt>
<pdfrwt beam="2">  1       21 0.40717766E-01 0.42757652E+03</pdfrwt>
<totfact> 0.87023676E+04</totfact>
</mgrwt>
</event>
<event>
 6    0  0.1539497E-004  0.4346082E+03  0.7546771E-02  0.1032414E+00
         21   -1    0    0  502  501  0.00000000000E+00  0.00000000000E+00  0.18221581872E+03  0.18221581872E+03  0.00000000000E+00 0. -1.
         21   -1    0    0  501  502 -0.00000000000E+00 -0.00000000000E+00 -0.25914918630E+03  0.25914918630E+03  0.00000000000E+00 0. -1.
      99925    2    1    2    0    0 -0.80865966650E+01  0.52489216629E+02  0.27964535750E+02  0.26969209180E+03  0.26292831383E+03 0.  0.
         25    1    1    2    0    0  0.80865966650E+01 -0.52489216629E+02 -0.10489790333E+03  0.17167291321E+03  0.12509000000E+03 0.  0.
         25    1    3    3    0    0 -0.43332146323E+02  0.34581341339E+02  0.87569546784E+01  0.13710483737E+03  0.12509000000E+03 0.  0.
         25    1    3    3    0    0  0.35245549658E+02  0.17907875290E+02  0.19207581071E+02  0.13258725444E+03  0.12509000000E+03 0.  0.
<mgrwt>
<rscale>  2 0.43460824E+03</rscale>
<asrwt>0</asrwt>
<pdfrwt beam="1">  1       21 0.26796444E-01 0.43460824E+03</pdfrwt>
<pdfrwt beam="2">  1       21 0.38110174E-01 0.43460824E+03</pdfrwt>
<totfact> 0.82121769E+04</totfact>
</mgrwt>
</event>
<event>
 6    0  0.1539497E-004  0.4102634E+03  0.7546771E-02  0.1040283E+00
         21   -1    0    0  502  501  0.00000000000E+00  0.00000000000E+00  0.19618583483E+03  0.19618583483E+03  0.00000000000E+00 0. -1.
         21   -1    0    0  501  502 -0.00000000000E+00 -0.00000000000E+00 -0.21448550595E+03  0.21448550595E+03  0.00000000000E+00 0. -1.
      99925    2    1    2    0    0  0.57995967062E+01  0.58495761787E+02  0.93011838077E+01  0.26972913715E+03  0.26308155758E+03 0.  0.
         25    1    1    2    0    0 -0.57995967062E+01 -0.58495761787E+02 -0.27600854933E+02  0.14094220362E+03  0.12509000000E+03 0.  0.
         25    1    3    3    0    0 -0.22856849244E+02  0.14605924209E+01  0.20658919934E+02  0.12883659403E+03  0.12509000000E+03 0.  0.
         25    1    3    3    0    0  0.28656445950E+02  0.57035169366E+02 -0.11357736126E+02  0.14089254313E+03  0.12509000000E+03 0.  0.
<mgrwt>
<rscale>  2 0.41026342E+03</rscale>
<asrwt>0</asrwt>
<pdfrwt beam="1">  1       21 0.28850858E-01 0.41026342E+03</pdfrwt>
<pdfrwt beam="2">  1       21 0.31541986E-01 0.41026342E+03</pdfrwt>
<totfact> 0.10454803E+05</totfact>
</mgrwt>
</event>
<event>
 6    0  0.1539497E-004  0.4067508E+03  0.7546771E-02  0.1041467E+00
         21   -1    0    0  502  501  0.00000000000E+00  0.00000000000E+00  0.38714959226E+02  0.38714959226E+02  0.00000000000E+00 0. -1.
         21   -1    0    0  501  502 -0.00000000000E+00 -0.00000000000E+00 -0.10683612583E+04  0.10683612583E+04  0.00000000000E+00 0. -1.
      99925    2    1    2    0    0  0.47412067736E+02  0.91168839724E+01 -0.59894626030E+03  0.65598747544E+03  0.26315760195E+03 0.  0.
         25    1    1    2    0    0 -0.47412067736E+02 -0.91168839724E+01 -0.43070003882E+03  0.45108874213E+03  0.12509000000E+03 0.  0.
         25    1    3    3    0    0  0.62608065526E+02 -0.66709712100E+01 -0.29377148741E+03  0.32544349224E+03  0.12509000000E+03 0.  0.
         25    1    3    3    0    0 -0.15195997790E+02  0.15787855182E+02 -0.30517477289E+03  0.33054398320E+03  0.12509000000E+03 0.  0.
<mgrwt>
<rscale>  2 0.40675085E+03</rscale>
<asrwt>0</asrwt>
<pdfrwt beam="1">  1       21 0.56933771E-02 0.40675085E+03</pdfrwt>
<pdfrwt beam="2">  1       21 0.15711193E+00 0.40675085E+03</pdfrwt>
<totfact> 0.52334268E+04</totfact>
</mgrwt>
</event>
<event>
 6    0  0.1539497E-004  0.4406258E+03  0.7546771E-02  0.1030555E+00
         21   -1    0    0  502  501  0.00000000000E+00  0.00000000000E+00  0.13349181190E+04  0.13349181190E+04  0.00000000000E+00 0.  1.
         21   -1    0    0  501  502 -0.00000000000E+00 -0.00000000000E+00 -0.36360113719E+02  0.36360113719E+02  0.00000000000E+00 0.  1.
      99925    2    1    2    0    0  0.38805330409E+02 -0.60013131736E+02  0.61513834722E+03  0.67283899644E+03  0.26307736364E+03 0.  0.
         25    1    3    3    0    0  0.29126362554E+02 -0.39494709258E+02  0.41043317107E+03  0.43186927776E+03  0.12509000000E+03 0.  0.
         25    1    3    3    0    0  0.96789678556E+01 -0.20518422478E+02  0.20470517615E+03  0.24096971868E+03  0.12509000000E+03 0.  0.
         25    1    1    2    0    0 -0.38805330409E+02  0.60013131736E+02  0.68341965803E+03  0.69843923625E+03  0.12509000000E+03 0.  0.
<mgrwt>
<rscale>  2 0.44062580E+03</rscale>
<asrwt>0</asrwt>
<pdfrwt beam="1">  1       21 0.19631146E+00 0.44062580E+03</pdfrwt>
<pdfrwt beam="2">  1       21 0.53470764E-02 0.44062580E+03</pdfrwt>
<totfact> 0.30360488E+04</totfact>
</mgrwt>
</event>
<event>
 6    0  0.1539497E-004  0.5053998E+03  0.7546771E-02  0.1012379E+00
         21   -1    0    0  502  501  0.00000000000E+00  0.00000000000E+00  0.92716582991E+03  0.92716582991E+03  0.00000000000E+00 0.  1.
         21   -1    0    0  501  502 -0.00000000000E+00 -0.00000000000E+00 -0.68873584250E+02  0.68873584250E+02  0.00000000000E+00 0.  1.
      99925    2    1    2    0    0 -0.16845187814E+01  0.87701069118E+01  0.21254785030E+03  0.33823010698E+03  0.26295106811E+03 0.  0.
         25    1    3    3    0    0 -0.88511994486E+01  0.43913236065E+02  0.11211391269E+03  0.17384980170E+03  0.12509000000E+03 0.  0.
         25    1    1    2    0    0  0.16845187814E+01 -0.87701069118E+01  0.64574439535E+03  0.65780930718E+03  0.12509000000E+03 0.  0.
         25    1    3    3    0    0  0.71666806672E+01 -0.35143129153E+02  0.10043393761E+03  0.16438030528E+03  0.12509000000E+03 0.  0.
<mgrwt>
<rscale>  2 0.50539978E+03</rscale>
<asrwt>0</asrwt>
<pdfrwt beam="1">  1       21 0.13634791E+00 0.50539978E+03</pdfrwt>
<pdfrwt beam="2">  1       21 0.10128469E-01 0.50539978E+03</pdfrwt>
<totfact> 0.27009232E+04</totfact>
</mgrwt>
</event>
<event>
 6    0  0.1539497E-004  0.4330251E+03  0.7546771E-02  0.1032909E+00
         21   -1    0    0  502  501  0.00000000000E+00  0.00000000000E+00  0.28989659002E+03  0.28989659002E+03  0.00000000000E+00 0. -1.
         21   -1    0    0  501  502 -0.00000000000E+00 -0.00000000000E+00 -0.16170485257E+03  0.16170485257E+03  0.00000000000E+00 0. -1.
      99925    2    1    2    0    0  0.52075577356E+02 -0.68157027019E+02  0.11413023623E+03  0.29927783968E+03  0.26302902580E+03 0.  0.
         25    1    1    2    0    0 -0.52075577356E+02  0.68157027019E+02  0.14061501227E+02  0.15232360292E+03  0.12509000000E+03 0.  0.
         25    1    3    3    0    0  0.65262879499E+01 -0.10576171903E+02  0.83854241611E+02  0.15110754376E+03  0.12509000000E+03 0.  0.
         25    1    3    3    0    0  0.45549289406E+02 -0.57580855116E+02  0.30275994615E+02  0.14817029591E+03  0.12509000000E+03 0.  0.
<mgrwt>
<rscale>  2 0.43302510E+03</rscale>
<asrwt>0</asrwt>
<pdfrwt beam="1">  1       21 0.42631852E-01 0.43302510E+03</pdfrwt>
<pdfrwt beam="2">  1       21 0.23780125E-01 0.43302510E+03</pdfrwt>
<totfact> 0.82260438E+04</totfact>
</mgrwt>
</event>
<event>
 6    0  0.1539497E-004  0.4098125E+03  0.7546771E-02  0.1040434E+00
         21   -1    0    0  502  501  0.00000000000E+00  0.00000000000E+00  0.26929147329E+03  0.26929147329E+03  0.00000000000E+00 0. -1.
         21   -1    0    0  501  502 -0.00000000000E+00 -0.00000000000E+00 -0.15591493482E+03  0.15591493482E+03  0.00000000000E+00 0. -1.
      99925    2    1    2    0    0 -0.16746941098E+02  0.62409097778E+00  0.12806869237E+02  0.26382916066E+03  0.26298471551E+03 0.  0.
         25    1    3    3    0    0 -0.32963475359E+02 -0.31898219975E+02  0.48087692047E+01  0.13332186432E+03  0.12509000000E+03 0.  0.
         25    1    3    3    0    0  0.16216534261E+02  0.32522310953E+02  0.79981000321E+01  0.13050729634E+03  0.12509000000E+03 0.  0.
         25    1    1    2    0    0  0.16746941098E+02 -0.62409097778E+00  0.10056966923E+03  0.16137724745E+03  0.12509000000E+03 0.  0.
<mgrwt>
<rscale>  2 0.40981246E+03</rscale>
<asrwt>0</asrwt>
<pdfrwt beam="1">  1       21 0.39601688E-01 0.40981246E+03</pdfrwt>
<pdfrwt beam="2">  1       21 0.22928667E-01 0.40981246E+03</pdfrwt>
<totfact> 0.10325340E+05</totfact>
</mgrwt>
</event>
<event>
 6    0  0.1539497E-004  0.4068985E+03  0.7546771E-02  0.1041417E+00
         21   -1    0    0  502  501  0.00000000000E+00  0.00000000000E+00  0.71051358457E+02  0.71051358457E+02  0.00000000000E+00 0.  1.
         21   -1    0    0  501  502 -0.00000000000E+00 -0.00000000000E+00 -0.58255887930E+03  0.58255887930E+03  0.00000000000E+00 0.  1.
      99925    2    1    2    0    0 -0.13451044618E+02  0.15377726163E+02 -0.42504010841E+03  0.50017775561E+03  0.26287123919E+03 0.  0.
         25    1    3    3    0    0  0.20588659459E+02  0.29561920044E+02 -0.17423196150E+03  0.21749042398E+03  0.12509000000E+03 0.  0.
         25    1    1    2    0    0  0.13451044618E+02 -0.15377726163E+02 -0.86467412431E+02  0.15343248214E+03  0.12509000000E+03 0.  0.
         25    1    3    3    0    0 -0.34039704078E+02 -0.14184193881E+02 -0.25080814691E+03  0.28268733164E+03  0.12509000000E+03 0.  0.
<mgrwt>
<rscale>  2 0.40689851E+03</rscale>
<asrwt>0</asrwt>
<pdfrwt beam="1">  1       21 0.10448729E-01 0.40689851E+03</pdfrwt>
<pdfrwt beam="2">  1       21 0.85670423E-01 0.40689851E+03</pdfrwt>
<totfact> 0.82645048E+04</totfact>
</mgrwt>
</event>
<event>
 6    0  0.1539497E-004  0.4696713E+03  0.7546771E-02  0.1022013E+00
         21   -1    0    0  502  501  0.00000000000E+00  0.00000000000E+00  0.68295652636E+02  0.68295652636E+02  0.00000000000E+00 0.  1.
         21   -1    0    0  501  502 -0.00000000000E+00 -0.00000000000E+00 -0.80748609174E+03  0.80748609174E+03  0.00000000000E+00 0.  1.
      99925    2    1    2    0    0  0.12469926602E+03  0.20099138849E+02 -0.47023689856E+03  0.55338851027E+03  0.26298711032E+03 0.  0.
         25    1    3    3    0    0  0.74382003082E+02  0.34427975883E+02 -0.18763550452E+03  0.23994282353E+03  0.12509000000E+03 0.  0.
         25    1    3    3    0    0  0.50317262942E+02 -0.14328837034E+02 -0.28260139404E+03  0.31344568673E+03  0.12509000000E+03 0.  0.
         25    1    1    2    0    0 -0.12469926602E+03 -0.20099138849E+02 -0.26895354054E+03  0.32239323411E+03  0.12509000000E+03 0.  0.
<mgrwt>
<rscale>  2 0.46967133E+03</rscale>
<asrwt>0</asrwt>
<pdfrwt beam="1">  1       21 0.10043479E-01 0.46967133E+03</pdfrwt>
<pdfrwt beam="2">  1       21 0.11874795E+00 0.46967133E+03</pdfrwt>
<totfact> 0.39552546E+04</totfact>
</mgrwt>
</event>
<event>
 6    0  0.1539497E-004  0.5937909E+03  0.7546771E-02  0.9918372E-01
         21   -1    0    0  502  501  0.00000000000E+00  0.00000000000E+00  0.67722175295E+03  0.67722175295E+03  0.00000000000E+00 0.  1.
         21   -1    0    0  501  502 -0.00000000000E+00 -0.00000000000E+00 -0.13015960087E+03  0.13015960087E+03  0.00000000000E+00 0.  1.
      99925    2    1    2    0    0  0.21287973163E+03 -0.70647700233E+01  0.24815304563E+03  0.41961615021E+03  0.26292601306E+03 0.  0.
         25    1    3    3    0    0  0.13507644107E+03 -0.29611513057E+02  0.11053807265E+03  0.21676867911E+03  0.12509000000E+03 0.  0.
         25    1    3    3    0    0  0.77803290568E+02  0.22546743034E+02  0.13761497298E+03  0.20284747110E+03  0.12509000000E+03 0.  0.
         25    1    1    2    0    0 -0.21287973163E+03  0.70647700233E+01  0.29890910644E+03  0.38776520361E+03  0.12509000000E+03 0.  0.
<mgrwt>
<rscale>  2 0.59379092E+03</rscale>
<asrwt>0</asrwt>
<pdfrwt beam="1">  1       21 0.99591432E-01 0.59379092E+03</pdfrwt>
<pdfrwt beam="2">  1       21 0.19141118E-01 0.59379092E+03</pdfrwt>
<totfact> 0.18077178E+04</totfact>
</mgrwt>
</event>
<event>
 6    0  0.1539497E-004  0.4007964E+03  0.7546771E-02  0.1043504E+00
         21   -1    0    0  502  501  0.00000000000E+00  0.00000000000E+00  0.18448843577E+03  0.18448843577E+03  0.00000000000E+00 0.  1.
         21   -1    0    0  501  502 -0.00000000000E+00 -0.00000000000E+00 -0.21767993407E+03  0.21767993407E+03  0.00000000000E+00 0.  1.
      99925    2    1    2    0    0  0.25528863745E+01  0.21568287054E+02 -0.63547261817E+02  0.27162838090E+03  0.26319577236E+03 0.  0.
         25    1    1    2    0    0 -0.25528863745E+01 -0.21568287054E+02  0.30355763515E+02  0.13053998895E+03  0.12509000000E+03 0.  0.
         25    1    3    3    0    0 -0.11210405368E+02  0.45908359280E+02 -0.49902363847E+02  0.14272702848E+03  0.12509000000E+03 0.  0.
         25    1    3    3    0    0  0.13763291742E+02 -0.24340072226E+02 -0.13644897969E+02  0.12890135242E+03  0.12509000000E+03 0.  0.
<mgrwt>
<rscale>  2 0.40079636E+03</rscale>
<asrwt>0</asrwt>
<pdfrwt beam="1">  1       21 0.27130653E-01 0.40079636E+03</pdfrwt>
<pdfrwt beam="2">  1       21 0.32011755E-01 0.40079636E+03</pdfrwt>
<totfact> 0.11477118E+05</totfact>
</mgrwt>
</event>
<event>
 6    0  0.1539497E-004  0.4222665E+03  0.7546771E-02  0.1036331E+00
         21   -1    0    0  502  501  0.00000000000E+00  0.00000000000E+00  0.89840097913E+02  0.89840097913E+02  0.00000000000E+00 0. -1.
         21   -1    0    0  501  502 -0.00000000000E+00 -0.00000000000E+00 -0.49618423312E+03  0.49618423312E+03  0.00000000000E+00 0. -1.
      99925    2    1    2    0    0  0.63765793640E+02  0.44954865598E+02 -0.25089800211E+03  0.37178608801E+03  0.26303625491E+03 0.  0.
         25    1    3    3    0    0  0.65122604385E+02  0.17174874095E+02 -0.16388717612E+03  0.21689270273E+03  0.12509000000E+03 0.  0.
         25    1    3    3    0    0 -0.13568107446E+01  0.27779991503E+02 -0.87010825996E+02  0.15489338528E+03  0.12509000000E+03 0.  0.
         25    1    1    2    0    0 -0.63765793640E+02 -0.44954865598E+02 -0.15544613310E+03  0.21423824302E+03  0.12509000000E+03 0.  0.
<mgrwt>
<rscale>  2 0.42226646E+03</rscale>
<asrwt>0</asrwt>
<pdfrwt beam="1">  1       21 0.13211779E-01 0.42226646E+03</pdfrwt>
<pdfrwt beam="2">  1       21 0.72968269E-01 0.42226646E+03</pdfrwt>
<totfact> 0.77805226E+04</totfact>
</mgrwt>
</event>
<event>
 6    0  0.1539497E-004  0.3953697E+03  0.7546771E-02  0.1045395E+00
         21   -1    0    0  502  501  0.00000000000E+00  0.00000000000E+00  0.98749518860E+02  0.98749518860E+02  0.00000000000E+00 0.  1.
         21   -1    0    0  501  502 -0.00000000000E+00 -0.00000000000E+00 -0.39574168370E+03  0.39574168370E+03  0.00000000000E+00 0.  1.
      99925    2    1    2    0    0  0.10509493096E+02  0.26958460893E+02 -0.22486677836E+03  0.34722685679E+03  0.26299090100E+03 0.  0.
         25    1    3    3    0    0 -0.20871795357E+02 -0.98787287904E+01 -0.82408423028E+02  0.15156476309E+03  0.12509000000E+03 0.  0.
         25    1    3    3    0    0  0.31381288453E+02  0.36837189683E+02 -0.14245835533E+03  0.19566209371E+03  0.12509000000E+03 0.  0.
         25    1    1    2    0    0 -0.10509493096E+02 -0.26958460893E+02 -0.72125386476E+02  0.14726434576E+03  0.12509000000E+03 0.  0.
<mgrwt>
<rscale>  2 0.39536970E+03</rscale>
<asrwt>0</asrwt>
<pdfrwt beam="1">  1       21 0.14521988E-01 0.39536970E+03</pdfrwt>
<pdfrwt beam="2">  1       21 0.58197306E-01 0.39536970E+03</pdfrwt>
<totfact> 0.10861378E+05</totfact>
</mgrwt>
</event>
<event>
 6    0  0.1539497E-004  0.4339185E+03  0.7546771E-02  0.1032629E+00
         21   -1    0    0  502  501  0.00000000000E+00  0.00000000000E+00  0.92990998613E+02  0.92990998613E+02  0.00000000000E+00 0.  1.
         21   -1    0    0  501  502 -0.00000000000E+00 -0.00000000000E+00 -0.50619219501E+03  0.50619219501E+03  0.00000000000E+00 0.  1.
      99925    2    1    2    0    0 -0.90989617362E+02 -0.31133045566E+01 -0.28413888708E+03  0.39770517766E+03  0.26295569598E+03 0.  0.
         25    1    3    3    0    0 -0.37338835217E+02  0.15296879464E+02 -0.19061521496E+03  0.23153801289E+03  0.12509000000E+03 0.  0.
         25    1    3    3    0    0 -0.53650782145E+02 -0.18410184021E+02 -0.93523672123E+02  0.16616716477E+03  0.12509000000E+03 0.  0.
         25    1    1    2    0    0  0.90989617362E+02  0.31133045566E+01 -0.12906230932E+03  0.20147801597E+03  0.12509000000E+03 0.  0.
<mgrwt>
<rscale>  2 0.43391851E+03</rscale>
<asrwt>0</asrwt>
<pdfrwt beam="1">  1       21 0.13675147E-01 0.43391851E+03</pdfrwt>
<pdfrwt beam="2">  1       21 0.74440029E-01 0.43391851E+03</pdfrwt>
<totfact> 0.69619650E+04</totfact>
</mgrwt>
</event>
<event>
 6    0  0.1539497E-004  0.4379925E+03  0.7546771E-02  0.1031365E+00
         21   -1    0    0  502  501  0.00000000000E+00  0.00000000000E+00  0.37591493830E+03  0.37591493830E+03  0.00000000000E+00 0. -1.
         21   -1    0    0  501  502 -0.00000000000E+00 -0.00000000000E+00 -0.12758036863E+03  0.12758036863E+03  0.00000000000E+00 0. -1.
      99925    2    1    2    0    0 -0.34074458137E+02 -0.53986370507E+01  0.26225082716E+03  0.37299096102E+03  0.26297632342E+03 0.  0.
         25    1    1    2    0    0  0.34074458137E+02  0.53986370507E+01 -0.13916257482E+02  0.13050434591E+03  0.12509000000E+03 0.  0.
         25    1    3    3    0    0 -0.18343573919E+02  0.22254575348E+02  0.17564399522E+03  0.21755476089E+03  0.12509000000E+03 0.  0.
         25    1    3    3    0    0 -0.15730884217E+02 -0.27653212398E+02  0.86606831936E+02  0.15543620013E+03  0.12509000000E+03 0.  0.
<mgrwt>
<rscale>  2 0.43799254E+03</rscale>
<asrwt>0</asrwt>
<pdfrwt beam="1">  1       21 0.55281608E-01 0.43799254E+03</pdfrwt>
<pdfrwt beam="2">  1       21 0.18761819E-01 0.43799254E+03</pdfrwt>
<totfact> 0.74596360E+04</totfact>
</mgrwt>
</event>
<event>
 6    0  0.1539497E-004  0.4415178E+03  0.7546771E-02  0.1030282E+00
         21   -1    0    0  502  501  0.00000000000E+00  0.00000000000E+00  0.38724221759E+03  0.38724221759E+03  0.00000000000E+00 0. -1.
         21   -1    0    0  501  502 -0.00000000000E+00 -0.00000000000E+00 -0.12585017638E+03  0.12585017638E+03  0.00000000000E+00 0. -1.
      99925    2    1    2    0    0  0.20011806245E+02  0.97727282415E+02  0.17455855708E+03  0.33105213418E+03  0.26300899524E+03 0.  0.
         25    1    1    2    0    0 -0.20011806245E+02 -0.97727282415E+02  0.86833484132E+02  0.18204025979E+03  0.12509000000E+03 0.  0.
         25    1    3    3    0    0  0.30678713290E+02  0.21145200131E+02  0.10897126658E+03  0.17003102063E+03  0.12509000000E+03 0.  0.
         25    1    3    3    0    0 -0.10666907044E+02  0.76582082284E+02  0.65587290503E+02  0.16102111355E+03  0.12509000000E+03 0.  0.
<mgrwt>
<rscale>  2 0.44151784E+03</rscale>
<asrwt>0</asrwt>
<pdfrwt beam="1">  1       21 0.56947385E-01 0.44151784E+03</pdfrwt>
<pdfrwt beam="2">  1       21 0.18507379E-01 0.44151784E+03</pdfrwt>
<totfact> 0.71729705E+04</totfact>
</mgrwt>
</event>
<event>
 6    0  0.1539497E-004  0.4079160E+03  0.7546771E-02  0.1041073E+00
         21   -1    0    0  502  501  0.00000000000E+00  0.00000000000E+00  0.44088362086E+03  0.44088362086E+03  0.00000000000E+00 0.  1.
         21   -1    0    0  501  502 -0.00000000000E+00 -0.00000000000E+00 -0.94353389087E+02  0.94353389087E+02  0.00000000000E+00 0.  1.
      99925    2    1    2    0    0  0.26252554027E+02 -0.28576301925E+02  0.17089055188E+03  0.31614203767E+03  0.26312811639E+03 0.  0.
         25    1    1    2    0    0 -0.26252554027E+02  0.28576301925E+02  0.17563967990E+03  0.21909497228E+03  0.12509000000E+03 0.  0.
         25    1    3    3    0    0 -0.21936974880E+02 -0.33242762024E+02  0.74242308527E+02  0.15081691075E+03  0.12509000000E+03 0.  0.
         25    1    3    3    0    0  0.48189528907E+02  0.46664600989E+01  0.96648243349E+02  0.16532512691E+03  0.12509000000E+03 0.  0.
<mgrwt>
<rscale>  2 0.40791599E+03</rscale>
<asrwt>0</asrwt>
<pdfrwt beam="1">  1       21 0.64835825E-01 0.40791599E+03</pdfrwt>
<pdfrwt beam="2">  1       21 0.13875499E-01 0.40791599E+03</pdfrwt>
<totfact> 0.92942054E+04</totfact>
</mgrwt>
</event>
<event>
 6    0  0.1539497E-004  0.3969855E+03  0.7546771E-02  0.1044829E+00
         21   -1    0    0  502  501  0.00000000000E+00  0.00000000000E+00  0.12523916416E+04  0.12523916416E+04  0.00000000000E+00 0.  1.
         21   -1    0    0  501  502 -0.00000000000E+00 -0.00000000000E+00 -0.31459311804E+02  0.31459311804E+02  0.00000000000E+00 0.  1.
      99925    2    1    2    0    0  0.24679004915E+02 -0.78680047932E+00  0.71891695382E+03  0.76589669080E+03  0.26295718691E+03 0.  0.
         25    1    3    3    0    0  0.52406318716E+02 -0.62769045274E+01  0.35912331543E+03  0.38393083434E+03  0.12509000000E+03 0.  0.
         25    1    3    3    0    0 -0.27727313801E+02  0.54901040481E+01  0.35979363839E+03  0.38196585646E+03  0.12509000000E+03 0.  0.
         25    1    1    2    0    0 -0.24679004915E+02  0.78680047932E+00  0.50201537602E+03  0.51795426266E+03  0.12509000000E+03 0.  0.
<mgrwt>
<rscale>  2 0.39698554E+03</rscale>
<asrwt>0</asrwt>
<pdfrwt beam="1">  1       21 0.18417521E+00 0.39698554E+03</pdfrwt>
<pdfrwt beam="2">  1       21 0.46263702E-02 0.39698554E+03</pdfrwt>
<totfact> 0.47784434E+04</totfact>
</mgrwt>
</event>
<event>
 6    0  0.1539497E-004  0.4124883E+03  0.7546771E-02  0.1039539E+00
         21   -1    0    0  502  501  0.00000000000E+00  0.00000000000E+00  0.34705200929E+03  0.34705200929E+03  0.00000000000E+00 0.  1.
         21   -1    0    0  501  502 -0.00000000000E+00 -0.00000000000E+00 -0.12256560621E+03  0.12256560621E+03  0.00000000000E+00 0.  1.
      99925    2    1    2    0    0  0.52631837551E+02  0.36459685351E+02  0.13001966064E+03  0.30029280187E+03  0.26300425040E+03 0.  0.
         25    1    1    2    0    0 -0.52631837551E+02 -0.36459685351E+02  0.94466742443E+02  0.16932481362E+03  0.12509000000E+03 0.  0.
         25    1    3    3    0    0  0.60838231829E+02  0.39738261060E+02  0.59503985665E+02  0.15642458967E+03  0.12509000000E+03 0.  0.
         25    1    3    3    0    0 -0.82063942780E+01 -0.32785757088E+01  0.70515674970E+02  0.14386821220E+03  0.12509000000E+03 0.  0.
<mgrwt>
<rscale>  2 0.41248825E+03</rscale>
<asrwt>0</asrwt>
<pdfrwt beam="1">  1       21 0.51037060E-01 0.41248825E+03</pdfrwt>
<pdfrwt beam="2">  1       21 0.18024354E-01 0.41248825E+03</pdfrwt>
<totfact> 0.95985418E+04</totfact>
</mgrwt>
</event>
<event>
 6    0  0.1539497E-004  0.4146889E+03  0.7546771E-02  0.1038809E+00
         21   -1    0    0  502  501  0.00000000000E+00  0.00000000000E+00  0.81655687088E+03  0.81655687088E+03  0.00000000000E+00 0. -1.
         21   -1    0    0  501  502 -0.00000000000E+00 -0.00000000000E+00 -0.52650013002E+02  0.52650013002E+02  0.00000000000E+00 0. -1.
      99925    2    1    2    0    0 -0.11836933751E+02  0.39907326816E+02  0.61592247095E+03  0.67101608034E+03  0.26300072646E+03 0.  0.
         25    1    3    3    0    0  0.25052820568E+02  0.41327201931E+02  0.27379210676E+03  0.30486916417E+03  0.12509000000E+03 0.  0.
         25    1    1    2    0    0  0.11836933751E+02 -0.39907326816E+02  0.14798438692E+03  0.19819080354E+03  0.12509000000E+03 0.  0.
         25    1    3    3    0    0 -0.36889754319E+02 -0.14198751153E+01  0.34213036419E+03  0.36614691617E+03  0.12509000000E+03 0.  0.
<mgrwt>
<rscale>  2 0.41468894E+03</rscale>
<asrwt>0</asrwt>
<pdfrwt beam="1">  1       21 0.12008189E+00 0.41468894E+03</pdfrwt>
<pdfrwt beam="2">  1       21 0.77426494E-02 0.41468894E+03</pdfrwt>
<totfact> 0.61953152E+04</totfact>
</mgrwt>
</event>
<event>
 6    0  0.1539497E-004  0.4110877E+03  0.7546771E-02  0.1040007E+00
         21   -1    0    0  502  501  0.00000000000E+00  0.00000000000E+00  0.28322209189E+03  0.28322209189E+03  0.00000000000E+00 0. -1.
         21   -1    0    0  501  502 -0.00000000000E+00 -0.00000000000E+00 -0.14917010571E+03  0.14917010571E+03  0.00000000000E+00 0. -1.
      99925    2    1    2    0    0 -0.27646361477E+02 -0.40095372179E+02  0.13183565769E+03  0.29813728936E+03  0.26293201117E+03 0.  0.
         25    1    3    3    0    0 -0.26993789100E+02 -0.53197062768E+02  0.91437129987E+02  0.16603267443E+03  0.12509000000E+03 0.  0.
         25    1    3    3    0    0 -0.65257237736E+00  0.13101690589E+02  0.40398527706E+02  0.13210461494E+03  0.12509000000E+03 0.  0.
         25    1    1    2    0    0  0.27646361477E+02  0.40095372179E+02  0.22163284888E+01  0.13425490823E+03  0.12509000000E+03 0.  0.
<mgrwt>
<rscale>  2 0.41108768E+03</rscale>
<asrwt>0</asrwt>
<pdfrwt beam="1">  1       21 0.41650308E-01 0.41108768E+03</pdfrwt>
<pdfrwt beam="2">  1       21 0.21936780E-01 0.41108768E+03</pdfrwt>
<totfact> 0.10128408E+05</totfact>
</mgrwt>
</event>
<event>
 6    0  0.1539497E-004  0.4046611E+03  0.7546771E-02  0.1042178E+00
         21   -1    0    0  502  501  0.00000000000E+00  0.00000000000E+00  0.11993032174E+03  0.11993032174E+03  0.00000000000E+00 0. -1.
         21   -1    0    0  501  502 -0.00000000000E+00 -0.00000000000E+00 -0.34134526070E+03  0.34134526070E+03  0.00000000000E+00 0. -1.
      99925    2    1    2    0    0  0.43853026793E+01  0.53606606436E+02 -0.14750004984E+03  0.30634392633E+03  0.26305405787E+03 0.  0.
         25    1    1    2    0    0 -0.43853026793E+01 -0.53606606436E+02 -0.73914889124E+02  0.15493165612E+03  0.12509000000E+03 0.  0.
         25    1    3    3    0    0 -0.19432742441E+02 -0.17581183012E+01 -0.47458834427E+02  0.13520566380E+03  0.12509000000E+03 0.  0.
         25    1    3    3    0    0  0.23818045121E+02  0.55364724737E+02 -0.10004121541E+03  0.17113826252E+03  0.12509000000E+03 0.  0.
<mgrwt>
<rscale>  2 0.40466108E+03</rscale>
<asrwt>0</asrwt>
<pdfrwt beam="1">  1       21 0.17636812E-01 0.40466108E+03</pdfrwt>
<pdfrwt beam="2">  1       21 0.50197832E-01 0.40466108E+03</pdfrwt>
<totfact> 0.10373960E+05</totfact>
</mgrwt>
</event>
<event>
 6    0  0.1539497E-004  0.5027368E+03  0.7546771E-02  0.1013067E+00
         21   -1    0    0  502  501  0.00000000000E+00  0.00000000000E+00  0.11986668783E+03  0.11986668783E+03  0.00000000000E+00 0. -1.
         21   -1    0    0  501  502 -0.00000000000E+00 -0.00000000000E+00 -0.52713626330E+03  0.52713626330E+03  0.00000000000E+00 0. -1.
      99925    2    1    2    0    0  0.11659964907E+03  0.28704793662E+02 -0.12171491626E+03  0.31292449501E+03  0.26208352751E+03 0.  0.
         25    1    3    3    0    0  0.25662123206E+02  0.37616472808E+02 -0.49707141219E+02  0.14209803511E+03  0.12509000000E+03 0.  0.
         25    1    3    3    0    0  0.90937525867E+02 -0.89116791460E+01 -0.72007775040E+02  0.17082645990E+03  0.12509000000E+03 0.  0.
         25    1    1    2    0    0 -0.11659964907E+03 -0.28704793662E+02 -0.28555465921E+03  0.33407845611E+03  0.12509000000E+03 0.  0.
<mgrwt>
<rscale>  2 0.50273682E+03</rscale>
<asrwt>0</asrwt>
<pdfrwt beam="1">  1       21 0.17627455E-01 0.50273682E+03</pdfrwt>
<pdfrwt beam="2">  1       21 0.77520037E-01 0.50273682E+03</pdfrwt>
<totfact> 0.38978930E+04</totfact>
</mgrwt>
</event>
<event>
 6    0  0.1539497E-004  0.4383360E+03  0.7546771E-02  0.1031259E+00
         21   -1    0    0  502  501  0.00000000000E+00  0.00000000000E+00  0.62723070184E+02  0.62723070184E+02  0.00000000000E+00 0.  1.
         21   -1    0    0  501  502 -0.00000000000E+00 -0.00000000000E+00 -0.76582047919E+03  0.76582047919E+03  0.00000000000E+00 0.  1.
      99925    2    1    2    0    0 -0.58332723154E+02  0.65415013297E+02 -0.37210742097E+03  0.46401136858E+03  0.26298438523E+03 0.  0.
         25    1    1    2    0    0  0.58332723154E+02 -0.65415013297E+02 -0.33098998803E+03  0.36453218079E+03  0.12509000000E+03 0.  0.
         25    1    3    3    0    0 -0.25042142133E+02  0.59724999199E+02 -0.14250816914E+03  0.20037532478E+03  0.12509000000E+03 0.  0.
         25    1    3    3    0    0 -0.33290581021E+02  0.56900140981E+01 -0.22959925184E+03  0.26363604380E+03  0.12509000000E+03 0.  0.
<mgrwt>
<rscale>  2 0.43833600E+03</rscale>
<asrwt>0</asrwt>
<pdfrwt beam="1">  1       21 0.92239812E-02 0.43833600E+03</pdfrwt>
<pdfrwt beam="2">  1       21 0.11262065E+00 0.43833600E+03</pdfrwt>
<totfact> 0.53013881E+04</totfact>
</mgrwt>
</event>
<event>
 6    0  0.1539497E-004  0.4050787E+03  0.7546771E-02  0.1042035E+00
         21   -1    0    0  502  501  0.00000000000E+00  0.00000000000E+00  0.41193765583E+02  0.41193765583E+02  0.00000000000E+00 0.  1.
         21   -1    0    0  501  502 -0.00000000000E+00 -0.00000000000E+00 -0.99583501576E+03  0.99583501576E+03  0.00000000000E+00 0.  1.
      99925    2    1    2    0    0 -0.37920841356E+02 -0.26643695979E+00 -0.53261408144E+03  0.59522282795E+03  0.26301025450E+03 0.  0.
         25    1    3    3    0    0 -0.64465437213E+01  0.21062805455E+02 -0.19032779503E+03  0.22881734497E+03  0.12509000000E+03 0.  0.
         25    1    1    2    0    0  0.37920841356E+02  0.26643695979E+00 -0.42202716874E+03  0.44180595339E+03  0.12509000000E+03 0.  0.
         25    1    3    3    0    0 -0.31474297635E+02 -0.21329242415E+02 -0.34228628641E+03  0.36640548298E+03  0.12509000000E+03 0.  0.
<mgrwt>
<rscale>  2 0.40507873E+03</rscale>
<asrwt>0</asrwt>
<pdfrwt beam="1">  1       21 0.60579074E-02 0.40507873E+03</pdfrwt>
<pdfrwt beam="2">  1       21 0.14644631E+00 0.40507873E+03</pdfrwt>
<totfact> 0.56905403E+04</totfact>
</mgrwt>
</event>
<event>
 6    0  0.1539497E-004  0.4040313E+03  0.7546771E-02  0.1042393E+00
         21   -1    0    0  502  501  0.00000000000E+00  0.00000000000E+00  0.13403262758E+03  0.13403262758E+03  0.00000000000E+00 0. -1.
         21   -1    0    0  501  502 -0.00000000000E+00 -0.00000000000E+00 -0.30448045873E+03  0.30448045873E+03  0.00000000000E+00 0. -1.
      99925    2    1    2    0    0  0.48830372871E+02  0.73909281620E+01 -0.92861592443E+02  0.28325148877E+03  0.26300018899E+03 0.  0.
         25    1    3    3    0    0  0.41853556536E+02 -0.31157871357E+02 -0.35093258536E+02  0.14000563573E+03  0.12509000000E+03 0.  0.
         25    1    3    3    0    0  0.69768163355E+01  0.38548799519E+02 -0.57768333907E+02  0.14324585304E+03  0.12509000000E+03 0.  0.
         25    1    1    2    0    0 -0.48830372871E+02 -0.73909281620E+01 -0.77586238707E+02  0.15526159754E+03  0.12509000000E+03 0.  0.
<mgrwt>
<rscale>  2 0.40403127E+03</rscale>
<asrwt>0</asrwt>
<pdfrwt beam="1">  1       21 0.19710681E-01 0.40403127E+03</pdfrwt>
<pdfrwt beam="2">  1       21 0.44776537E-01 0.40403127E+03</pdfrwt>
<totfact> 0.10701439E+05</totfact>
</mgrwt>
</event>
<event>
 6    0  0.1539497E-004  0.3972321E+03  0.7546771E-02  0.1044742E+00
         21   -1    0    0  502  501  0.00000000000E+00  0.00000000000E+00  0.17781862461E+03  0.17781862461E+03  0.00000000000E+00 0.  1.
         21   -1    0    0  501  502 -0.00000000000E+00 -0.00000000000E+00 -0.22184593109E+03  0.22184593109E+03  0.00000000000E+00 0.  1.
      99925    2    1    2    0    0 -0.22043048964E+02 -0.27667260535E+02 -0.48081883025E+02  0.26960564210E+03  0.26291436147E+03 0.  0.
         25    1    3    3    0    0 -0.38383354267E+02 -0.37540814014E+02 -0.43786345580E+02  0.14299421933E+03  0.12509000000E+03 0.  0.
         25    1    3    3    0    0  0.16340305302E+02  0.98735534784E+01 -0.42955374449E+01  0.12661142278E+03  0.12509000000E+03 0.  0.
         25    1    1    2    0    0  0.22043048964E+02  0.27667260535E+02  0.40545765454E+01  0.13005891359E+03  0.12509000000E+03 0.  0.
<mgrwt>
<rscale>  2 0.39723212E+03</rscale>
<asrwt>0</asrwt>
<pdfrwt beam="1">  1       21 0.26149798E-01 0.39723212E+03</pdfrwt>
<pdfrwt beam="2">  1       21 0.32624402E-01 0.39723212E+03</pdfrwt>
<totfact> 0.11883063E+05</totfact>
</mgrwt>
</event>
<event>
 6    0  0.1539497E-004  0.3993926E+03  0.7546771E-02  0.1043990E+00
         21   -1    0    0  502  501  0.00000000000E+00  0.00000000000E+00  0.61746768360E+02  0.61746768360E+02  0.00000000000E+00 0.  1.
         21   -1    0    0  501  502 -0.00000000000E+00 -0.00000000000E+00 -0.64584120689E+03  0.64584120689E+03  0.00000000000E+00 0.  1.
      99925    2    1    2    0    0 -0.14246723291E+02 -0.39616711820E+02 -0.41472316414E+03  0.49286352469E+03  0.26295759756E+03 0.  0.
         25    1    3    3    0    0 -0.17811801771E+02 -0.59387341314E+02 -0.21815127715E+03  0.25900116682E+03  0.12509000000E+03 0.  0.
         25    1    1    2    0    0  0.14246723291E+02  0.39616711820E+02 -0.16937127439E+03  0.21472445056E+03  0.12509000000E+03 0.  0.
         25    1    3    3    0    0  0.35650784802E+01  0.19770629494E+02 -0.19657188699E+03  0.23386235787E+03  0.12509000000E+03 0.  0.
<mgrwt>
<rscale>  2 0.39939258E+03</rscale>
<asrwt>0</asrwt>
<pdfrwt beam="1">  1       21 0.90804074E-02 0.39939258E+03</pdfrwt>
<pdfrwt beam="2">  1       21 0.94976645E-01 0.39939258E+03</pdfrwt>
<totfact> 0.83437245E+04</totfact>
</mgrwt>
</event>
<event>
 6    0  0.1539497E-004  0.4167756E+03  0.7546771E-02  0.1038121E+00
         21   -1    0    0  502  501  0.00000000000E+00  0.00000000000E+00  0.45982093490E+02  0.45982093490E+02  0.00000000000E+00 0.  1.
         21   -1    0    0  501  502 -0.00000000000E+00 -0.00000000000E+00 -0.94439973306E+03  0.94439973306E+03  0.00000000000E+00 0.  1.
      99925    2    1    2    0    0  0.10147406387E+02 -0.87827583158E+01 -0.42033351772E+03  0.49602159113E+03  0.26301529623E+03 0.  0.
         25    1    3    3    0    0 -0.29900954937E+02  0.78442058881E+01 -0.17602340820E+03  0.21814524291E+03  0.12509000000E+03 0.  0.
         25    1    3    3    0    0  0.40048361324E+02 -0.16626964204E+02 -0.24431010953E+03  0.27787634822E+03  0.12509000000E+03 0.  0.
         25    1    1    2    0    0 -0.10147406387E+02  0.87827583158E+01 -0.47808412184E+03  0.49436023541E+03  0.12509000000E+03 0.  0.
<mgrwt>
<rscale>  2 0.41677561E+03</rscale>
<asrwt>0</asrwt>
<pdfrwt beam="1">  1       21 0.67620724E-02 0.41677561E+03</pdfrwt>
<pdfrwt beam="2">  1       21 0.13888232E+00 0.41677561E+03</pdfrwt>
<totfact> 0.53934548E+04</totfact>
</mgrwt>
</event>
<event>
 6    0  0.1539497E-004  0.4185078E+03  0.7546771E-02  0.1037553E+00
         21   -1    0    0  502  501  0.00000000000E+00  0.00000000000E+00  0.18981971354E+03  0.18981971354E+03  0.00000000000E+00 0. -1.
         21   -1    0    0  501  502 -0.00000000000E+00 -0.00000000000E+00 -0.23067777915E+03  0.23067777915E+03  0.00000000000E+00 0. -1.
      99925    2    1    2    0    0  0.59325914526E+02  0.35802575102E+02 -0.57263208633E+00  0.27193163937E+03  0.26295455894E+03 0.  0.
         25    1    1    2    0    0 -0.59325914526E+02 -0.35802575102E+02 -0.40285433526E+02  0.14856585332E+03  0.12509000000E+03 0.  0.
         25    1    3    3    0    0  0.25574130204E+02  0.52079963429E+02 -0.21901454817E+02  0.13961926998E+03  0.12509000000E+03 0.  0.
         25    1    3    3    0    0  0.33751784322E+02 -0.16277388327E+02  0.21328822731E+02  0.13231236939E+03  0.12509000000E+03 0.  0.
<mgrwt>
<rscale>  2 0.41850778E+03</rscale>
<asrwt>0</asrwt>
<pdfrwt beam="1">  1       21 0.27914664E-01 0.41850778E+03</pdfrwt>
<pdfrwt beam="2">  1       21 0.33923203E-01 0.41850778E+03</pdfrwt>
<totfact> 0.96273859E+04</totfact>
</mgrwt>
</event>
<event>
 6    0  0.1539497E-004  0.4076667E+03  0.7546771E-02  0.1041157E+00
         21   -1    0    0  502  501  0.00000000000E+00  0.00000000000E+00  0.30640708370E+03  0.30640708370E+03  0.00000000000E+00 0.  1.
         21   -1    0    0  501  502 -0.00000000000E+00 -0.00000000000E+00 -0.13559747872E+03  0.13559747872E+03  0.00000000000E+00 0.  1.
      99925    2    1    2    0    0 -0.51891255017E+02 -0.58098618139E+01  0.83544650944E+02  0.28079309526E+03  0.26294219289E+03 0.  0.
         25    1    3    3    0    0 -0.31358534645E+02  0.53699701038E+00  0.21822623471E+00  0.12896201682E+03  0.12509000000E+03 0.  0.
         25    1    1    2    0    0  0.51891255017E+02  0.58098618139E+01  0.87264954036E+02  0.16121146716E+03  0.12509000000E+03 0.  0.
         25    1    3    3    0    0 -0.20532720373E+02 -0.63468588242E+01  0.83326424709E+02  0.15183107843E+03  0.12509000000E+03 0.  0.
<mgrwt>
<rscale>  2 0.40766667E+03</rscale>
<asrwt>0</asrwt>
<pdfrwt beam="1">  1       21 0.45059865E-01 0.40766667E+03</pdfrwt>
<pdfrwt beam="2">  1       21 0.19940806E-01 0.40766667E+03</pdfrwt>
<totfact> 0.10323603E+05</totfact>
</mgrwt>
</event>
<event>
 6    0  0.1539497E-004  0.4230893E+03  0.7546771E-02  0.1036066E+00
         21   -1    0    0  502  501  0.00000000000E+00  0.00000000000E+00  0.68099992776E+02  0.68099992776E+02  0.00000000000E+00 0.  1.
         21   -1    0    0  501  502 -0.00000000000E+00 -0.00000000000E+00 -0.65713875615E+03  0.65713875615E+03  0.00000000000E+00 0.  1.
      99925    2    1    2    0    0 -0.48737339116E+02 -0.13119357449E+02 -0.27543688731E+03  0.38385759752E+03  0.26255233863E+03 0.  0.
         25    1    3    3    0    0 -0.39934863618E+02  0.50332263554E+01 -0.19008792081E+03  0.23108667733E+03  0.12509000000E+03 0.  0.
         25    1    3    3    0    0 -0.88024754979E+01 -0.18152583805E+02 -0.85348966496E+02  0.15277092019E+03  0.12509000000E+03 0.  0.
         25    1    1    2    0    0  0.48737339116E+02  0.13119357449E+02 -0.31360187607E+03  0.34138115141E+03  0.12509000000E+03 0.  0.
<mgrwt>
<rscale>  2 0.42308933E+03</rscale>
<asrwt>0</asrwt>
<pdfrwt beam="1">  1       21 0.10014704E-01 0.42308933E+03</pdfrwt>
<pdfrwt beam="2">  1       21 0.96638056E-01 0.42308933E+03</pdfrwt>
<totfact> 0.66806687E+04</totfact>
</mgrwt>
</event>
<event>
 6    0  0.1539497E-004  0.4114024E+03  0.7546771E-02  0.1039901E+00
         21   -1    0    0  502  501  0.00000000000E+00  0.00000000000E+00  0.16429376387E+03  0.16429376387E+03  0.00000000000E+00 0.  1.
         21   -1    0    0  501  502 -0.00000000000E+00 -0.00000000000E+00 -0.25754463008E+03  0.25754463008E+03  0.00000000000E+00 0.  1.
      99925    2    1    2    0    0 -0.93548918678E+01  0.49470199815E+02 -0.10233791098E+03  0.28669070749E+03  0.26302794351E+03 0.  0.
         25    1    3    3    0    0 -0.44088368721E+02  0.21720781680E+02 -0.41509566250E+02  0.14066317501E+03  0.12509000000E+03 0.  0.
         25    1    1    2    0    0  0.93548918678E+01 -0.49470199815E+02  0.90870447615E+01  0.13514768645E+03  0.12509000000E+03 0.  0.
         25    1    3    3    0    0  0.34733476854E+02  0.27749418135E+02 -0.60828344726E+02  0.14602753248E+03  0.12509000000E+03 0.  0.
<mgrwt>
<rscale>  2 0.41140237E+03</rscale>
<asrwt>0</asrwt>
<pdfrwt beam="1">  1       21 0.24160848E-01 0.41140237E+03</pdfrwt>
<pdfrwt beam="2">  1       21 0.37874210E-01 0.41140237E+03</pdfrwt>
<totfact> 0.10221644E+05</totfact>
</mgrwt>
</event>
<event>
 6    0  0.1539497E-004  0.4260170E+03  0.7546771E-02  0.1035126E+00
         21   -1    0    0  502  501  0.00000000000E+00  0.00000000000E+00  0.22048909472E+03  0.22048909472E+03  0.00000000000E+00 0.  1.
         21   -1    0    0  501  502 -0.00000000000E+00 -0.00000000000E+00 -0.20578167110E+03  0.20578167110E+03  0.00000000000E+00 0.  1.
      99925    2    1    2    0    0 -0.29727212050E+01 -0.20891095552E+02 -0.71201962074E+02  0.27306108729E+03  0.26276864928E+03 0.  0.
         25    1    1    2    0    0  0.29727212050E+01  0.20891095552E+02  0.85909385694E+02  0.15320967853E+03  0.12509000000E+03 0.  0.
         25    1    3    3    0    0  0.59915079779E+01 -0.48183006798E+02 -0.48761704657E+02  0.14276803652E+03  0.12509000000E+03 0.  0.
         25    1    3    3    0    0 -0.89642291828E+01  0.27291911246E+02 -0.22440257417E+02  0.13029305076E+03  0.12509000000E+03 0.  0.
<mgrwt>
<rscale>  2 0.42601697E+03</rscale>
<asrwt>0</asrwt>
<pdfrwt beam="1">  1       21 0.32424867E-01 0.42601697E+03</pdfrwt>
<pdfrwt beam="2">  1       21 0.30262010E-01 0.42601697E+03</pdfrwt>
<totfact> 0.89726433E+04</totfact>
</mgrwt>
</event>
<event>
 6    0  0.1539497E-004  0.4505889E+03  0.7546771E-02  0.1027547E+00
         21   -1    0    0  502  501  0.00000000000E+00  0.00000000000E+00  0.12278492396E+03  0.12278492396E+03  0.00000000000E+00 0.  1.
         21   -1    0    0  501  502 -0.00000000000E+00 -0.00000000000E+00 -0.41338610041E+03  0.41338610041E+03  0.00000000000E+00 0.  1.
      99925    2    1    2    0    0  0.22199734952E+02 -0.10629085756E+03 -0.17306060482E+03  0.33306054037E+03  0.26303759424E+03 0.  0.
         25    1    3    3    0    0  0.14370888798E+02 -0.43651213686E+02 -0.38306345549E+02  0.13866086366E+03  0.12509000000E+03 0.  0.
         25    1    1    2    0    0 -0.22199734952E+02  0.10629085756E+03 -0.11754057163E+03  0.20311048400E+03  0.12509000000E+03 0.  0.
         25    1    3    3    0    0  0.78288461536E+01 -0.62639643870E+02 -0.13475425927E+03  0.19439967671E+03  0.12509000000E+03 0.  0.
<mgrwt>
<rscale>  2 0.45058886E+03</rscale>
<asrwt>0</asrwt>
<pdfrwt beam="1">  1       21 0.18056607E-01 0.45058886E+03</pdfrwt>
<pdfrwt beam="2">  1       21 0.60792073E-01 0.45058886E+03</pdfrwt>
<totfact> 0.65030509E+04</totfact>
</mgrwt>
</event>
<event>
 6    0  0.1539497E-004  0.4393456E+03  0.7546771E-02  0.1030948E+00
         21   -1    0    0  502  501  0.00000000000E+00  0.00000000000E+00  0.75752665555E+02  0.75752665555E+02  0.00000000000E+00 0. -1.
         21   -1    0    0  501  502 -0.00000000000E+00 -0.00000000000E+00 -0.63702220403E+03  0.63702220403E+03  0.00000000000E+00 0. -1.
      99925    2    1    2    0    0  0.65252937507E+02 -0.64103975496E+02 -0.30229812033E+03  0.41097863196E+03  0.26296771065E+03 0.  0.
         25    1    1    2    0    0 -0.65252937507E+02  0.64103975496E+02 -0.25897141814E+03  0.30179623762E+03  0.12509000000E+03 0.  0.
         25    1    3    3    0    0  0.10537312993E+02 -0.38521110414E+02 -0.97650714922E+02  0.16364009636E+03  0.12509000000E+03 0.  0.
         25    1    3    3    0    0  0.54715624514E+02 -0.25582865082E+02 -0.20464740541E+03  0.24733853560E+03  0.12509000000E+03 0.  0.
<mgrwt>
<rscale>  2 0.43934556E+03</rscale>
<asrwt>0</asrwt>
<pdfrwt beam="1">  1       21 0.11140098E-01 0.43934556E+03</pdfrwt>
<pdfrwt beam="2">  1       21 0.93679737E-01 0.43934556E+03</pdfrwt>
<totfact> 0.59172277E+04</totfact>
</mgrwt>
</event>
<event>
 6    0  0.1539497E-004  0.4005707E+03  0.7546771E-02  0.1043582E+00
         21   -1    0    0  502  501  0.00000000000E+00  0.00000000000E+00  0.26244353105E+03  0.26244353105E+03  0.00000000000E+00 0.  1.
         21   -1    0    0  501  502 -0.00000000000E+00 -0.00000000000E+00 -0.15284896294E+03  0.15284896294E+03  0.00000000000E+00 0.  1.
      99925    2    1    2    0    0  0.35406666669E+02 -0.30260297681E+02  0.70986771606E+02  0.27634146769E+03  0.26297560222E+03 0.  0.
         25    1    3    3    0    0  0.28756663400E+02  0.11653096028E+02  0.57281136086E+01  0.12900798317E+03  0.12509000000E+03 0.  0.
         25    1    3    3    0    0  0.66500032686E+01 -0.41913393709E+02  0.65258657997E+02  0.14733348451E+03  0.12509000000E+03 0.  0.
         25    1    1    2    0    0 -0.35406666669E+02  0.30260297681E+02  0.38607796502E+02  0.13895102630E+03  0.12509000000E+03 0.  0.
<mgrwt>
<rscale>  2 0.40057070E+03</rscale>
<asrwt>0</asrwt>
<pdfrwt beam="1">  1       21 0.38594637E-01 0.40057070E+03</pdfrwt>
<pdfrwt beam="2">  1       21 0.22477789E-01 0.40057070E+03</pdfrwt>
<totfact> 0.11329336E+05</totfact>
</mgrwt>
</event>
<event>
 6    0  0.1539497E-004  0.4457603E+03  0.7546771E-02  0.1028994E+00
         21   -1    0    0  502  501  0.00000000000E+00  0.00000000000E+00  0.19794872068E+03  0.19794872068E+03  0.00000000000E+00 0.  1.
         21   -1    0    0  501  502 -0.00000000000E+00 -0.00000000000E+00 -0.25095164595E+03  0.25095164595E+03  0.00000000000E+00 0.  1.
      99925    2    1    2    0    0 -0.65221143241E+02 -0.32663731316E+02 -0.10867267232E+03  0.29376382771E+03  0.26299566516E+03 0.  0.
         25    1    1    2    0    0  0.65221143241E+02  0.32663731316E+02  0.55669747051E+02  0.15513653891E+03  0.12509000000E+03 0.  0.
         25    1    3    3    0    0 -0.16570092156E+02  0.18325619543E+02 -0.68157777816E+02  0.14458003687E+03  0.12509000000E+03 0.  0.
         25    1    3    3    0    0 -0.48651051085E+02 -0.50989350858E+02 -0.40514894503E+02  0.14918379084E+03  0.12509000000E+03 0.  0.
<mgrwt>
<rscale>  2 0.44576028E+03</rscale>
<asrwt>0</asrwt>
<pdfrwt beam="1">  1       21 0.29110106E-01 0.44576028E+03</pdfrwt>
<pdfrwt beam="2">  1       21 0.36904654E-01 0.44576028E+03</pdfrwt>
<totfact> 0.74324664E+04</totfact>
</mgrwt>
</event>
<event>
 6    0  0.1539497E-004  0.4004243E+03  0.7546771E-02  0.1043633E+00
         21   -1    0    0  502  501  0.00000000000E+00  0.00000000000E+00  0.17389884779E+03  0.17389884779E+03  0.00000000000E+00 0. -1.
         21   -1    0    0  501  502 -0.00000000000E+00 -0.00000000000E+00 -0.23050703250E+03  0.23050703250E+03  0.00000000000E+00 0. -1.
      99925    2    1    2    0    0  0.10531326770E+02  0.44678251536E+02 -0.42785276729E+02  0.27044455793E+03  0.26306391619E+03 0.  0.
         25    1    3    3    0    0  0.70832322712E+01  0.26525369565E+01  0.15253024606E+02  0.12624330078E+03  0.12509000000E+03 0.  0.
         25    1    3    3    0    0  0.34480944984E+01  0.42025714580E+02 -0.58038301335E+02  0.14420125715E+03  0.12509000000E+03 0.  0.
         25    1    1    2    0    0 -0.10531326770E+02 -0.44678251536E+02 -0.13822907988E+02  0.13396132236E+03  0.12509000000E+03 0.  0.
<mgrwt>
<rscale>  2 0.40042431E+03</rscale>
<asrwt>0</asrwt>
<pdfrwt beam="1">  1       21 0.25573360E-01 0.40042431E+03</pdfrwt>
<pdfrwt beam="2">  1       21 0.33898093E-01 0.40042431E+03</pdfrwt>
<totfact> 0.11485323E+05</totfact>
</mgrwt>
</event>
